 *******************************************************************************
 ** Site#: 36543        For non-commercial use only           Version 21.199L **
 *******************************************************************************
 ** Cite this program as: MOPAC2016, Version: 21.199L, James J. P. Stewart,   **
 ** Stewart Computational Chemistry, web: HTTP://OpenMOPAC.net. Days left: 259**
 *******************************************************************************
 **                                                                           **
 **                                MOPAC2016                                  **
 **                                                                           **
 *******************************************************************************

                              PM7 CALCULATION RESULTS

 *******************************************************************************
 *  CALCULATION DONE:                                Mon Nov  1 20:16:16 2021  *
 *  PM7        - The PM7 Hamiltonian to be used
 *  UHF        - UNRESTRICTED HARTREE-FOCK CALCULATION
 *  T=         - A TIME OF 172800.0 SECONDS REQUESTED
 *  DUMP=N     - RESTART FILE WRITTEN EVERY 7200.0 SECONDS REQUESTED
 *  RELSCF     - DEFAULT SCF CRITERION MULTIPLIED BY 0.0001
 *              (DEFAULT SCF CRITERION = 0.00010)
 *  GRADIENTS  - ALL GRADIENTS TO BE PRINTED
 *  BONDS      - FINAL BOND-ORDER MATRIX TO BE PRINTED
 *******************************************************************************
PM7 UHF BONDS GRADS RELSCF=0.0001
 Title: ASE calculation

   ATOM   CHEMICAL          X               Y               Z
  NUMBER   SYMBOL      (ANGSTROMS)     (ANGSTROMS)     (ANGSTROMS)
 
     1       C         -1.89582900  *   1.36952800  *   1.57845400  *
     2       C         -1.07371500  *   1.40983500  *   0.35021400  *
     3       C         -1.92638600  *   2.07216900  *  -0.74552200  *
     4       N         -0.52413800  *   0.16680400  *  -0.09241800  *
     5       C          0.89619900  *   0.10897700  *  -0.23381000  *
     6       O          1.63693700  *   1.10615300  *   0.02035800  *
     7       S          1.72997100  *  -1.37179600  *  -0.77870800  *
     8       C          3.52173000  *  -1.14212100  *  -0.85234100  *
     9       C          4.02022600  *  -0.94216600  *   0.53423700  *
    10      Cl          3.71489600  *  -2.23582000  *   1.68105500  *
    11       C          4.66788400  *   0.15853100  *   0.90302900  *
    12      Cl          4.93790700  *   1.40603200  *  -0.29031000  *
    13      Cl          5.23309000  *   0.33629900  *   2.56150200  *
    14       C         -1.25906700  *  -1.02467300  *  -0.40721000  *
    15       C         -1.89624300  *  -1.60091300  *   0.86789100  *
    16       C         -2.28873000  *  -0.89661100  *  -1.46250400  *
    17       H         -1.48648100  *   0.70044100  *   2.34935200  *
    18       H         -1.84254000  *   2.40242100  *   2.04281700  *
    19       H         -2.98645200  *   1.23499700  *   1.39956700  *
    20       H         -0.24603900  *   2.13000100  *   0.51061800  *
    21       H         -2.06439300  *   3.15486400  *  -0.45585700  *
    22       H         -2.89589700  *   1.58053400  *  -0.77800100  *
    23       H         -1.40269600  *   2.09382300  *  -1.70405800  *
    24       H          3.73687100  *  -0.20785900  *  -1.42134900  *
    25       H          4.02580500  *  -1.99515600  *  -1.33890800  *
    26       H         -0.53933700  *  -1.80685000  *  -0.72247000  *
    27       H         -1.17027500  *  -1.58356600  *   1.69447900  *
    28       H         -2.85834000  *  -1.12876000  *   1.07575200  *
    29       H         -2.08685600  *  -2.68772600  *   0.63426300  *
    30       H         -2.00031000  *  -0.16711700  *  -2.21845300  *
    31       H         -2.35728500  *  -1.88472900  *  -2.01236400  *
    32       H         -3.32050500  *  -0.75554800  *  -1.07002300  *
 


          CARTESIAN COORDINATES 

    NO.       ATOM           X           Y           Z

     1         C         -1.8958      1.3695      1.5785
     2         C         -1.0737      1.4098      0.3502
     3         C         -1.9264      2.0722     -0.7455
     4         N         -0.5241      0.1668     -0.0924
     5         C          0.8962      0.1090     -0.2338
     6         O          1.6369      1.1062      0.0204
     7         S          1.7300     -1.3718     -0.7787
     8         C          3.5217     -1.1421     -0.8523
     9         C          4.0202     -0.9422      0.5342
    10        Cl          3.7149     -2.2358      1.6811
    11         C          4.6679      0.1585      0.9030
    12        Cl          4.9379      1.4060     -0.2903
    13        Cl          5.2331      0.3363      2.5615
    14         C         -1.2591     -1.0247     -0.4072
    15         C         -1.8962     -1.6009      0.8679
    16         C         -2.2887     -0.8966     -1.4625
    17         H         -1.4865      0.7004      2.3494
    18         H         -1.8425      2.4024      2.0428
    19         H         -2.9865      1.2350      1.3996
    20         H         -0.2460      2.1300      0.5106
    21         H         -2.0644      3.1549     -0.4559
    22         H         -2.8959      1.5805     -0.7780
    23         H         -1.4027      2.0938     -1.7041
    24         H          3.7369     -0.2079     -1.4213
    25         H          4.0258     -1.9952     -1.3389
    26         H         -0.5393     -1.8069     -0.7225
    27         H         -1.1703     -1.5836      1.6945
    28         H         -2.8583     -1.1288      1.0758
    29         H         -2.0869     -2.6877      0.6343
    30         H         -2.0003     -0.1671     -2.2185
    31         H         -2.3573     -1.8847     -2.0124
    32         H         -3.3205     -0.7555     -1.0700

 General Reference for PM7:
 "Optimization of Parameters for Semiempirical Methods VI: More Modifications to the 
 NDDO Approximations and Re-optimization of Parameters", J. J. P. Stewart, J. Mol. Mod., 1:32, 19 (2013)
 https://link.springer.com/article/10.1007/s00894-012-1667-x

           Empirical Formula: C10 H16 N O S Cl3  =    32 atoms



      MOLECULAR POINT GROUP   :   C1  


          UHF CALCULATION, NO. OF ALPHA ELECTRONS =   47
                           NO. OF BETA  ELECTRONS =   47

          Geometry optimization using EF
  SCF CRITERION =    0.1000E-07

          DIAGONAL MATRIX USED AS START HESSIAN

 CYCLE:     1 TIME:   0.656 TIME LEFT:  2.00D  GRAD.:   226.330 HEAT: -43.41086
 CYCLE:     2 TIME:   0.211 TIME LEFT:  2.00D  GRAD.:   281.706 HEAT: -51.48107
 CYCLE:     3 TIME:   0.500 TIME LEFT:  2.00D  GRAD.:   130.751 HEAT: -60.10114
 CYCLE:     4 TIME:   0.336 TIME LEFT:  2.00D  GRAD.:   116.280 HEAT: -61.94778
 CYCLE:     5 TIME:   0.297 TIME LEFT:  2.00D  GRAD.:   120.451 HEAT: -63.65306
 CYCLE:     6 TIME:   0.539 TIME LEFT:  2.00D  GRAD.:    60.265 HEAT: -66.86692
 CYCLE:     7 TIME:   0.570 TIME LEFT:  2.00D  GRAD.:    58.673 HEAT: -67.35216
 CYCLE:     8 TIME:   0.297 TIME LEFT:  2.00D  GRAD.:    34.890 HEAT: -68.15826
 CYCLE:     9 TIME:   0.320 TIME LEFT:  2.00D  GRAD.:    43.770 HEAT: -68.34061
 CYCLE:    10 TIME:   0.336 TIME LEFT:  2.00D  GRAD.:    43.111 HEAT: -68.71843
 CYCLE:    11 TIME:   0.203 TIME LEFT:  2.00D  GRAD.:    39.620 HEAT: -68.84408
 CYCLE:    12 TIME:   0.320 TIME LEFT:  2.00D  GRAD.:    34.885 HEAT: -69.27217
 CYCLE:    13 TIME:   0.547 TIME LEFT:  2.00D  GRAD.:    23.628 HEAT: -69.56395
 CYCLE:    14 TIME:   0.641 TIME LEFT:  2.00D  GRAD.:    14.556 HEAT: -69.73646
 CYCLE:    15 TIME:   0.273 TIME LEFT:  2.00D  GRAD.:    12.590 HEAT: -69.89808
 CYCLE:    16 TIME:   0.211 TIME LEFT:  2.00D  GRAD.:    23.506 HEAT: -70.03047
 CYCLE:    17 TIME:   0.281 TIME LEFT:  2.00D  GRAD.:    19.996 HEAT: -70.27836
 CYCLE:    18 TIME:   0.195 TIME LEFT:  2.00D  GRAD.:    16.185 HEAT: -70.43953
 CYCLE:    19 TIME:   0.195 TIME LEFT:  2.00D  GRAD.:    20.304 HEAT: -70.46924
 CYCLE:    20 TIME:   0.164 TIME LEFT:  2.00D  GRAD.:    16.594 HEAT: -70.54551
 CYCLE:    21 TIME:   0.336 TIME LEFT:  2.00D  GRAD.:    14.229 HEAT: -70.61037
 CYCLE:    22 TIME:   0.188 TIME LEFT:  2.00D  GRAD.:     7.715 HEAT: -70.69341
 CYCLE:    23 TIME:   0.180 TIME LEFT:  2.00D  GRAD.:    11.372 HEAT: -70.74944
 CYCLE:    24 TIME:   0.172 TIME LEFT:  2.00D  GRAD.:     9.588 HEAT: -70.83340
 CYCLE:    25 TIME:   0.242 TIME LEFT:  2.00D  GRAD.:     9.730 HEAT: -70.97739
 CYCLE:    26 TIME:   0.211 TIME LEFT:  2.00D  GRAD.:    11.958 HEAT: -71.15541
 CYCLE:    27 TIME:   0.219 TIME LEFT:  2.00D  GRAD.:    13.253 HEAT: -71.28881
 CYCLE:    28 TIME:   0.203 TIME LEFT:  2.00D  GRAD.:     8.491 HEAT: -71.45817
 CYCLE:    29 TIME:   0.227 TIME LEFT:  2.00D  GRAD.:    17.734 HEAT: -71.58311
 CYCLE:    30 TIME:   0.484 TIME LEFT:  2.00D  GRAD.:    11.717 HEAT: -71.73242
 CYCLE:    31 TIME:   0.531 TIME LEFT:  2.00D  GRAD.:    11.138 HEAT: -71.80425
 CYCLE:    32 TIME:   0.406 TIME LEFT:  2.00D  GRAD.:     9.049 HEAT: -71.90116
 CYCLE:    33 TIME:   0.461 TIME LEFT:  2.00D  GRAD.:     8.973 HEAT: -72.01378
 CYCLE:    34 TIME:   0.445 TIME LEFT:  2.00D  GRAD.:     8.539 HEAT: -72.12320
 CYCLE:    35 TIME:   0.383 TIME LEFT:  2.00D  GRAD.:     6.977 HEAT: -72.22176
 CYCLE:    36 TIME:   0.461 TIME LEFT:  2.00D  GRAD.:     6.542 HEAT: -72.30839
 CYCLE:    37 TIME:   0.484 TIME LEFT:  2.00D  GRAD.:     9.592 HEAT: -72.35328
 CYCLE:    38 TIME:   0.383 TIME LEFT:  2.00D  GRAD.:     6.192 HEAT: -72.39880
 CYCLE:    39 TIME:   0.406 TIME LEFT:  2.00D  GRAD.:     7.718 HEAT: -72.42140
 CYCLE:    40 TIME:   0.180 TIME LEFT:  2.00D  GRAD.:     2.942 HEAT: -72.45373
 CYCLE:    41 TIME:   0.250 TIME LEFT:  2.00D  GRAD.:     2.824 HEAT: -72.47491
 CYCLE:    42 TIME:   0.234 TIME LEFT:  2.00D  GRAD.:     3.607 HEAT: -72.49322
 CYCLE:    43 TIME:   0.336 TIME LEFT:  2.00D  GRAD.:     3.958 HEAT: -72.51033
 CYCLE:    44 TIME:   0.227 TIME LEFT:  2.00D  GRAD.:     3.652 HEAT: -72.53695
 CYCLE:    45 TIME:   0.172 TIME LEFT:  2.00D  GRAD.:     4.073 HEAT: -72.57966
 CYCLE:    46 TIME:   0.312 TIME LEFT:  2.00D  GRAD.:     4.539 HEAT: -72.62129
 CYCLE:    47 TIME:   0.227 TIME LEFT:  2.00D  GRAD.:     5.182 HEAT: -72.65989
 CYCLE:    48 TIME:   0.445 TIME LEFT:  2.00D  GRAD.:     6.415 HEAT: -72.70512
 CYCLE:    49 TIME:   0.219 TIME LEFT:  2.00D  GRAD.:     5.364 HEAT: -72.76176
 CYCLE:    50 TIME:   0.219 TIME LEFT:  2.00D  GRAD.:     5.282 HEAT: -72.85022
 CYCLE:    51 TIME:   0.359 TIME LEFT:  2.00D  GRAD.:     5.433 HEAT: -72.91916
 CYCLE:    52 TIME:   0.328 TIME LEFT:  2.00D  GRAD.:     5.681 HEAT: -73.00089
 CYCLE:    53 TIME:   0.398 TIME LEFT:  2.00D  GRAD.:     7.814 HEAT: -73.06224
 CYCLE:    54 TIME:   0.336 TIME LEFT:  2.00D  GRAD.:     7.988 HEAT: -73.11633
 CYCLE:    55 TIME:   0.531 TIME LEFT:  2.00D  GRAD.:     5.867 HEAT: -73.19202
 CYCLE:    56 TIME:   0.445 TIME LEFT:  2.00D  GRAD.:     6.277 HEAT: -73.29951
 CYCLE:    57 TIME:   0.484 TIME LEFT:  2.00D  GRAD.:     7.100 HEAT: -73.40159
 CYCLE:    58 TIME:   0.500 TIME LEFT:  2.00D  GRAD.:     6.211 HEAT: -73.48672
 CYCLE:    59 TIME:   0.242 TIME LEFT:  2.00D  GRAD.:     4.904 HEAT: -73.55227
 CYCLE:    60 TIME:   0.219 TIME LEFT:  2.00D  GRAD.:     4.066 HEAT: -73.59643
 CYCLE:    61 TIME:   0.211 TIME LEFT:  2.00D  GRAD.:     3.109 HEAT: -73.62448
 CYCLE:    62 TIME:   0.219 TIME LEFT:  2.00D  GRAD.:     2.621 HEAT: -73.64099
 CYCLE:    63 TIME:   0.180 TIME LEFT:  2.00D  GRAD.:     2.589 HEAT: -73.65826
 CYCLE:    64 TIME:   0.188 TIME LEFT:  2.00D  GRAD.:     3.278 HEAT: -73.67743
 CYCLE:    65 TIME:   0.188 TIME LEFT:  2.00D  GRAD.:     3.964 HEAT: -73.70241
 CYCLE:    66 TIME:   0.172 TIME LEFT:  2.00D  GRAD.:     4.569 HEAT: -73.73516
 CYCLE:    67 TIME:   0.164 TIME LEFT:  2.00D  GRAD.:     4.560 HEAT: -73.78500
 CYCLE:    68 TIME:   0.211 TIME LEFT:  2.00D  GRAD.:     4.036 HEAT: -73.81912
 CYCLE:    69 TIME:   0.203 TIME LEFT:  2.00D  GRAD.:     4.666 HEAT: -73.87325
 CYCLE:    70 TIME:   0.250 TIME LEFT:  2.00D  GRAD.:     4.414 HEAT: -73.90674
 CYCLE:    71 TIME:   0.391 TIME LEFT:  2.00D  GRAD.:     5.010 HEAT: -73.97361
 CYCLE:    72 TIME:   0.570 TIME LEFT:  2.00D  GRAD.:     5.597 HEAT: -74.04183
 CYCLE:    73 TIME:   0.555 TIME LEFT:  2.00D  GRAD.:     5.918 HEAT: -74.11195
 CYCLE:    74 TIME:   0.641 TIME LEFT:  2.00D  GRAD.:     5.386 HEAT: -74.18363
 CYCLE:    75 TIME:   0.570 TIME LEFT:  2.00D  GRAD.:     4.758 HEAT: -74.25279
 CYCLE:    76 TIME:   0.531 TIME LEFT:  2.00D  GRAD.:     5.321 HEAT: -74.30729
 CYCLE:    77 TIME:   0.617 TIME LEFT:  2.00D  GRAD.:     6.087 HEAT: -74.33207
 CYCLE:    78 TIME:   0.578 TIME LEFT:  2.00D  GRAD.:     3.284 HEAT: -74.37796
 CYCLE:    79 TIME:   0.484 TIME LEFT:  2.00D  GRAD.:     2.859 HEAT: -74.40345
 CYCLE:    80 TIME:   0.516 TIME LEFT:  2.00D  GRAD.:     2.682 HEAT: -74.42742
 CYCLE:    81 TIME:   0.484 TIME LEFT:  2.00D  GRAD.:     3.135 HEAT: -74.44528
 CYCLE:    82 TIME:   0.305 TIME LEFT:  2.00D  GRAD.:     2.984 HEAT: -74.46861
 CYCLE:    83 TIME:   0.297 TIME LEFT:  2.00D  GRAD.:     2.929 HEAT: -74.48881
 CYCLE:    84 TIME:   0.336 TIME LEFT:  2.00D  GRAD.:     2.644 HEAT: -74.50860
 CYCLE:    85 TIME:   0.305 TIME LEFT:  2.00D  GRAD.:     3.025 HEAT: -74.52515
 CYCLE:    86 TIME:   0.328 TIME LEFT:  2.00D  GRAD.:     3.437 HEAT: -74.54807
 CYCLE:    87 TIME:   0.367 TIME LEFT:  2.00D  GRAD.:     4.077 HEAT: -74.57998
 CYCLE:    88 TIME:   0.453 TIME LEFT:  2.00D  GRAD.:     4.292 HEAT: -74.62076
 CYCLE:    89 TIME:   0.680 TIME LEFT:  2.00D  GRAD.:     4.366 HEAT: -74.65785
 CYCLE:    90 TIME:   0.531 TIME LEFT:  2.00D  GRAD.:     3.303 HEAT: -74.68726
 CYCLE:    91 TIME:   0.406 TIME LEFT:  2.00D  GRAD.:     2.636 HEAT: -74.70782
 CYCLE:    92 TIME:   0.555 TIME LEFT:  2.00D  GRAD.:     2.646 HEAT: -74.72098
 CYCLE:    93 TIME:   0.453 TIME LEFT:  2.00D  GRAD.:     2.334 HEAT: -74.73182
 CYCLE:    94 TIME:   0.516 TIME LEFT:  2.00D  GRAD.:     2.169 HEAT: -74.74105
 CYCLE:    95 TIME:   0.500 TIME LEFT:  2.00D  GRAD.:     2.093 HEAT: -74.75226
 CYCLE:    96 TIME:   0.570 TIME LEFT:  2.00D  GRAD.:     2.323 HEAT: -74.76748
 CYCLE:    97 TIME:   0.516 TIME LEFT:  2.00D  GRAD.:     2.585 HEAT: -74.78410
 CYCLE:    98 TIME:   0.391 TIME LEFT:  2.00D  GRAD.:     2.404 HEAT: -74.79873
 CYCLE:    99 TIME:   0.422 TIME LEFT:  2.00D  GRAD.:     2.132 HEAT: -74.80953
 CYCLE:   100 TIME:   0.664 TIME LEFT:  2.00D  GRAD.:     1.930 HEAT: -74.81824
 CYCLE:   101 TIME:   0.531 TIME LEFT:  2.00D  GRAD.:     1.631 HEAT: -74.82503
 CYCLE:   102 TIME:   0.516 TIME LEFT:  2.00D  GRAD.:     1.419 HEAT: -74.83018
 CYCLE:   103 TIME:   0.453 TIME LEFT:  2.00D  GRAD.:     1.139 HEAT: -74.83370
 CYCLE:   104 TIME:   0.430 TIME LEFT:  2.00D  GRAD.:     1.072 HEAT: -74.83639
 CYCLE:   105 TIME:   0.453 TIME LEFT:  2.00D  GRAD.:     0.960 HEAT: -74.83870

     GRADIENT =  0.96023 IS LESS THAN CUTOFF =  1.00000



 -------------------------------------------------------------------------------
 PM7 UHF BONDS GRADS RELSCF=0.0001
 Title: ASE calculation



     GEOMETRY OPTIMISED USING EIGENVECTOR FOLLOWING (EF).     
     SCF FIELD WAS ACHIEVED                                   


                              PM7 CALCULATION
                                                       MOPAC2016 (Version: 21.199L)
                                                       Mon Nov  1 20:16:55 2021
                                                       No. of days remaining = 259




          FINAL HEAT OF FORMATION =        -74.83870 KCAL/MOL =    -313.12513 KJ/MOL


          TOTAL ENERGY            =      -2903.82988 EV
          ELECTRONIC ENERGY       =     -19055.89421 EV  POINT GROUP:     C1  
          CORE-CORE REPULSION     =      16152.06433 EV
          COSMO AREA              =        282.00 SQUARE ANGSTROMS
          COSMO VOLUME            =        332.50 CUBIC ANGSTROMS

          GRADIENT NORM           =          0.96023 = 0.16975 PER ATOM
          IONIZATION POTENTIAL    =          9.232544 EV
          ALPHA SOMO LUMO (EV)    =         -9.233 -0.762
          BETA  SOMO LUMO (EV)    =         -9.233 -0.762
          NO. OF ALPHA ELECTRONS  =         47
          NO. OF BETA  ELECTRONS  =         47
          MOLECULAR WEIGHT        =        304.6615

          MOLECULAR DIMENSIONS (Angstroms)

            Atom       Atom       Distance
            H    31   Cl    13     9.07755
            H    25    H    18     7.56887
            H    23    H    29     5.43821


          SCF CALCULATIONS        =        112
 
          WALL-CLOCK TIME         =         39.344 SECONDS
          COMPUTATION TIME        =         58.327 SECONDS

          LARGEST ATOMIC GRADIENTS

          Atom     Label                     Cartesian Gradients           Cartesian Coordinates       |Gradient|
                                           X          Y          Z        X          Y          Z

            13      Cl                   0.305     -0.095      0.083    4.76041    0.48738    2.60138      0.330
            31       H                  -0.091     -0.316     -0.019   -3.19951   -1.59005   -1.23607      0.329
             6       O                   0.243     -0.202     -0.013    1.75233    0.90505   -0.20357      0.317
            32       H                  -0.224      0.118      0.040   -3.22851   -0.04397   -0.38769      0.256
             3       C                  -0.206      0.149     -0.004   -1.42557    2.25362   -0.87713      0.254
            25       H                  -0.211      0.084      0.007    4.01065   -2.07786   -1.32439      0.227
            30       H                  -0.020     -0.024     -0.199   -2.46905   -0.16177   -1.98403      0.202
            21       H                   0.139      0.136      0.008   -1.47549    3.31398   -0.60173      0.195
            28       H                  -0.174      0.082      0.013   -2.21067   -1.29751    1.58388      0.193
            23       H                   0.136     -0.066      0.112   -0.79334    2.18002   -1.77165      0.188



       FINAL  POINT  AND  DERIVATIVES

   PARAMETER     ATOM    TYPE            VALUE        GRADIENT
      1          1  C    CARTESIAN X    -1.810383     -0.150592  KCAL/ANGSTROM
      2          1  C    CARTESIAN Y     1.332296     -0.007015  KCAL/ANGSTROM
      3          1  C    CARTESIAN Z     1.454141     -0.027771  KCAL/ANGSTROM
      4          2  C    CARTESIAN X    -0.835854     -0.086182  KCAL/ANGSTROM
      5          2  C    CARTESIAN Y     1.428731      0.047911  KCAL/ANGSTROM
      6          2  C    CARTESIAN Z     0.276455      0.037700  KCAL/ANGSTROM
      7          3  C    CARTESIAN X    -1.425568     -0.205696  KCAL/ANGSTROM
      8          3  C    CARTESIAN Y     2.253618      0.148581  KCAL/ANGSTROM
      9          3  C    CARTESIAN Z    -0.877128     -0.004273  KCAL/ANGSTROM
     10          4  N    CARTESIAN X    -0.370290      0.006984  KCAL/ANGSTROM
     11          4  N    CARTESIAN Y     0.099550      0.043664  KCAL/ANGSTROM
     12          4  N    CARTESIAN Z    -0.210429      0.037874  KCAL/ANGSTROM
     13          5  C    CARTESIAN X     0.982101      0.062646  KCAL/ANGSTROM
     14          5  C    CARTESIAN Y    -0.014540      0.055487  KCAL/ANGSTROM
     15          5  C    CARTESIAN Z    -0.380780     -0.050940  KCAL/ANGSTROM
     16          6  O    CARTESIAN X     1.752328      0.243414  KCAL/ANGSTROM
     17          6  O    CARTESIAN Y     0.905049     -0.202141  KCAL/ANGSTROM
     18          6  O    CARTESIAN Z    -0.203574     -0.013010  KCAL/ANGSTROM
     19          7  S    CARTESIAN X     1.684748      0.018281  KCAL/ANGSTROM
     20          7  S    CARTESIAN Y    -1.626927     -0.010996  KCAL/ANGSTROM
     21          7  S    CARTESIAN Z    -0.909669     -0.022363  KCAL/ANGSTROM
     22          8  C    CARTESIAN X     3.474192     -0.084662  KCAL/ANGSTROM
     23          8  C    CARTESIAN Y    -1.206807      0.127359  KCAL/ANGSTROM
     24          8  C    CARTESIAN Z    -0.883850     -0.012144  KCAL/ANGSTROM
     25          9  C    CARTESIAN X     3.910771      0.017171  KCAL/ANGSTROM
     26          9  C    CARTESIAN Y    -0.920205      0.057247  KCAL/ANGSTROM
     27          9  C    CARTESIAN Z     0.493481      0.034576  KCAL/ANGSTROM
     28         10 Cl    CARTESIAN X     3.835651      0.132453  KCAL/ANGSTROM
     29         10 Cl    CARTESIAN Y    -2.273304      0.036845  KCAL/ANGSTROM
     30         10 Cl    CARTESIAN Z     1.543897     -0.047975  KCAL/ANGSTROM
     31         11  C    CARTESIAN X     4.336996      0.111685  KCAL/ANGSTROM
     32         11  C    CARTESIAN Y     0.247164     -0.028536  KCAL/ANGSTROM
     33         11  C    CARTESIAN Z     0.976524      0.069291  KCAL/ANGSTROM
     34         12 Cl    CARTESIAN X     4.521266     -0.135027  KCAL/ANGSTROM
     35         12 Cl    CARTESIAN Y     1.629306     -0.066496  KCAL/ANGSTROM
     36         12 Cl    CARTESIAN Z     0.019264      0.025480  KCAL/ANGSTROM
     37         13 Cl    CARTESIAN X     4.760406      0.305030  KCAL/ANGSTROM
     38         13 Cl    CARTESIAN Y     0.487378     -0.094777  KCAL/ANGSTROM
     39         13 Cl    CARTESIAN Z     2.601380      0.083402  KCAL/ANGSTROM
     40         14  C    CARTESIAN X    -1.270800      0.050122  KCAL/ANGSTROM
     41         14  C    CARTESIAN Y    -1.059185     -0.073084  KCAL/ANGSTROM
     42         14  C    CARTESIAN Z    -0.390984     -0.075159  KCAL/ANGSTROM
     43         15  C    CARTESIAN X    -1.486221     -0.031973  KCAL/ANGSTROM
     44         15  C    CARTESIAN Y    -1.802794     -0.035364  KCAL/ANGSTROM
     45         15  C    CARTESIAN Z     0.938078      0.028081  KCAL/ANGSTROM
     46         16  C    CARTESIAN X    -2.614991      0.050445  KCAL/ANGSTROM
     47         16  C    CARTESIAN Y    -0.684212     -0.051252  KCAL/ANGSTROM
     48         16  C    CARTESIAN Z    -1.030289     -0.009711  KCAL/ANGSTROM
     49         17  H    CARTESIAN X    -1.391726     -0.039809  KCAL/ANGSTROM
     50         17  H    CARTESIAN Y     0.725249     -0.010031  KCAL/ANGSTROM
     51         17  H    CARTESIAN Z     2.266569      0.017313  KCAL/ANGSTROM
     52         18  H    CARTESIAN X    -2.007610     -0.041161  KCAL/ANGSTROM
     53         18  H    CARTESIAN Y     2.332396      0.104034  KCAL/ANGSTROM
     54         18  H    CARTESIAN Z     1.861655      0.016477  KCAL/ANGSTROM
     55         19  H    CARTESIAN X    -2.776708     -0.099788  KCAL/ANGSTROM
     56         19  H    CARTESIAN Y     0.902059      0.003990  KCAL/ANGSTROM
     57         19  H    CARTESIAN Z     1.174296     -0.075362  KCAL/ANGSTROM
     58         20  H    CARTESIAN X     0.083619      0.071304  KCAL/ANGSTROM
     59         20  H    CARTESIAN Y     1.979671      0.034296  KCAL/ANGSTROM
     60         20  H    CARTESIAN Z     0.651974      0.019496  KCAL/ANGSTROM
     61         21  H    CARTESIAN X    -1.475486      0.139217  KCAL/ANGSTROM
     62         21  H    CARTESIAN Y     3.313982      0.136191  KCAL/ANGSTROM
     63         21  H    CARTESIAN Z    -0.601728      0.008041  KCAL/ANGSTROM
     64         22  H    CARTESIAN X    -2.433299      0.066600  KCAL/ANGSTROM
     65         22  H    CARTESIAN Y     1.936378     -0.062151  KCAL/ANGSTROM
     66         22  H    CARTESIAN Z    -1.154061     -0.017254  KCAL/ANGSTROM
     67         23  H    CARTESIAN X    -0.793340      0.136232  KCAL/ANGSTROM
     68         23  H    CARTESIAN Y     2.180021     -0.065624  KCAL/ANGSTROM
     69         23  H    CARTESIAN Z    -1.771650      0.111874  KCAL/ANGSTROM
     70         24  H    CARTESIAN X     3.660918     -0.035936  KCAL/ANGSTROM
     71         24  H    CARTESIAN Y    -0.354808     -0.011022  KCAL/ANGSTROM
     72         24  H    CARTESIAN Z    -1.577958     -0.037665  KCAL/ANGSTROM
     73         25  H    CARTESIAN X     4.010651     -0.210894  KCAL/ANGSTROM
     74         25  H    CARTESIAN Y    -2.077864      0.083770  KCAL/ANGSTROM
     75         25  H    CARTESIAN Z    -1.324388      0.007184  KCAL/ANGSTROM
     76         26  H    CARTESIAN X    -0.781308      0.033213  KCAL/ANGSTROM
     77         26  H    CARTESIAN Y    -1.771911      0.040986  KCAL/ANGSTROM
     78         26  H    CARTESIAN Z    -1.118075     -0.015082  KCAL/ANGSTROM
     79         27  H    CARTESIAN X    -0.550908      0.166810  KCAL/ANGSTROM
     80         27  H    CARTESIAN Y    -1.893428      0.044281  KCAL/ANGSTROM
     81         27  H    CARTESIAN Z     1.505881     -0.045897  KCAL/ANGSTROM
     82         28  H    CARTESIAN X    -2.210674     -0.174135  KCAL/ANGSTROM
     83         28  H    CARTESIAN Y    -1.297514      0.081516  KCAL/ANGSTROM
     84         28  H    CARTESIAN Z     1.583885      0.013202  KCAL/ANGSTROM
     85         29  H    CARTESIAN X    -1.857649      0.018757  KCAL/ANGSTROM
     86         29  H    CARTESIAN Y    -2.818063     -0.106336  KCAL/ANGSTROM
     87         29  H    CARTESIAN Z     0.759237      0.123068  KCAL/ANGSTROM
     88         30  H    CARTESIAN X    -2.469054     -0.020440  KCAL/ANGSTROM
     89         30  H    CARTESIAN Y    -0.161767     -0.023596  KCAL/ANGSTROM
     90         30  H    CARTESIAN Z    -1.984032     -0.199464  KCAL/ANGSTROM
     91         31  H    CARTESIAN X    -3.199509     -0.090561  KCAL/ANGSTROM
     92         31  H    CARTESIAN Y    -1.590048     -0.316068  KCAL/ANGSTROM
     93         31  H    CARTESIAN Z    -1.236070     -0.019023  KCAL/ANGSTROM
     94         32  H    CARTESIAN X    -3.228510     -0.223517  KCAL/ANGSTROM
     95         32  H    CARTESIAN Y    -0.043972      0.118345  KCAL/ANGSTROM
     96         32  H    CARTESIAN Z    -0.387692      0.040033  KCAL/ANGSTROM




   ATOM   CHEMICAL          X               Y               Z
  NUMBER   SYMBOL      (ANGSTROMS)     (ANGSTROMS)     (ANGSTROMS)
 
     1       C         -1.81038255  *   1.33229603  *   1.45414138  *
     2       C         -0.83585354  *   1.42873072  *   0.27645479  *
     3       C         -1.42556788  *   2.25361822  *  -0.87712830  *
     4       N         -0.37029031  *   0.09955024  *  -0.21042884  *
     5       C          0.98210065  *  -0.01454035  *  -0.38077984  *
     6       O          1.75232788  *   0.90504870  *  -0.20357406  *
     7       S          1.68474829  *  -1.62692744  *  -0.90966897  *
     8       C          3.47419178  *  -1.20680670  *  -0.88384956  *
     9       C          3.91077057  *  -0.92020500  *   0.49348077  *
    10      Cl          3.83565133  *  -2.27330392  *   1.54389671  *
    11       C          4.33699604  *   0.24716432  *   0.97652446  *
    12      Cl          4.52126633  *   1.62930603  *   0.01926368  *
    13      Cl          4.76040645  *   0.48737826  *   2.60138045  *
    14       C         -1.27079958  *  -1.05918458  *  -0.39098439  *
    15       C         -1.48622143  *  -1.80279368  *   0.93807796  *
    16       C         -2.61499110  *  -0.68421212  *  -1.03028888  *
    17       H         -1.39172619  *   0.72524869  *   2.26656926  *
    18       H         -2.00761027  *   2.33239644  *   1.86165524  *
    19       H         -2.77670832  *   0.90205940  *   1.17429620  *
    20       H          0.08361884  *   1.97967084  *   0.65197433  *
    21       H         -1.47548571  *   3.31398207  *  -0.60172795  *
    22       H         -2.43329874  *   1.93637839  *  -1.15406065  *
    23       H         -0.79334042  *   2.18002111  *  -1.77164964  *
    24       H          3.66091776  *  -0.35480830  *  -1.57795809  *
    25       H          4.01065117  *  -2.07786370  *  -1.32438836  *
    26       H         -0.78130812  *  -1.77191065  *  -1.11807533  *
    27       H         -0.55090848  *  -1.89342845  *   1.50588122  *
    28       H         -2.21067438  *  -1.29751423  *   1.58388489  *
    29       H         -1.85764874  *  -2.81806321  *   0.75923700  *
    30       H         -2.46905395  *  -0.16176720  *  -1.98403159  *
    31       H         -3.19950902  *  -1.59004782  *  -1.23606964  *
    32       H         -3.22850998  *  -0.04397234  *  -0.38769171  *

                             CARTESIAN COORDINATES

   1    C       -1.810382548     1.332296026     1.454141382
   2    C       -0.835853543     1.428730718     0.276454795
   3    C       -1.425567876     2.253618219    -0.877128296
   4    N       -0.370290313     0.099550245    -0.210428841
   5    C        0.982100654    -0.014540346    -0.380779839
   6    O        1.752327884     0.905048704    -0.203574058
   7    S        1.684748289    -1.626927439    -0.909668969
   8    C        3.474191777    -1.206806702    -0.883849556
   9    C        3.910770567    -0.920205001     0.493480774
  10   Cl        3.835651326    -2.273303923     1.543896708
  11    C        4.336996039     0.247164318     0.976524460
  12   Cl        4.521266327     1.629306026     0.019263675
  13   Cl        4.760406452     0.487378264     2.601380446
  14    C       -1.270799580    -1.059184577    -0.390984388
  15    C       -1.486221426    -1.802793675     0.938077962
  16    C       -2.614991104    -0.684212121    -1.030288883
  17    H       -1.391726194     0.725248688     2.266569257
  18    H       -2.007610275     2.332396444     1.861655239
  19    H       -2.776708316     0.902059400     1.174296198
  20    H        0.083618840     1.979670841     0.651974332
  21    H       -1.475485713     3.313982072    -0.601727950
  22    H       -2.433298741     1.936378392    -1.154060655
  23    H       -0.793340420     2.180021113    -1.771649644
  24    H        3.660917761    -0.354808295    -1.577958086
  25    H        4.010651173    -2.077863695    -1.324388361
  26    H       -0.781308117    -1.771910652    -1.118075325
  27    H       -0.550908481    -1.893428454     1.505881217
  28    H       -2.210674384    -1.297514226     1.583884894
  29    H       -1.857648739    -2.818063211     0.759236996
  30    H       -2.469053953    -0.161767197    -1.984031588
  31    H       -3.199509020    -1.590047818    -1.236069638
  32    H       -3.228509983    -0.043972343    -0.387691715


           Empirical Formula: C10 H16 N O S Cl3  =    32 atoms



      MOLECULAR POINT GROUP   :   C1  


          ALPHA EIGENVALUES  
 -36.68544 -30.91302 -29.97095 -28.36754 -28.14285 -27.65139 -26.20652 -25.41648
 -24.68282 -24.10548 -23.83951 -22.63955 -21.28292 -20.46607 -19.17024 -18.12596
 -17.11892 -16.48288 -16.21077 -16.12223 -15.88074 -15.27648 -15.11091 -14.81464
 -14.39346 -14.24853 -14.03096 -13.90877 -13.67518 -13.52916 -13.39819 -13.22898
 -12.77361 -12.64451 -12.42497 -12.29377 -11.99023 -11.65793 -11.51714 -11.40013
 -11.30993 -11.28120 -10.97526  -9.96627  -9.71943  -9.56494  -9.23254  -0.76216
  -0.49307  -0.11676   0.14373   0.15699   0.18697   0.33119   0.59029   0.88748
   1.22402   1.54604   1.71694   2.02226   3.46554   3.52922   3.75994   3.90757
   4.02173   4.05905   4.21317   4.77910   4.97767   5.11177   5.12335   5.38352
   5.41758   5.44061   5.53014   5.55741   5.61516   5.67233   5.73589   5.78114
   5.98646   6.46191   6.71998   6.85537   6.89235  67.86133  68.15752  68.32376
  68.48784  68.61253  68.76922  68.82604  68.91768  69.41632  69.55426  69.65652
  69.89641  69.98974  70.17767  70.28201


           BETA EIGENVALUES 
 -36.68544 -30.91302 -29.97095 -28.36754 -28.14285 -27.65139 -26.20652 -25.41648
 -24.68282 -24.10548 -23.83951 -22.63955 -21.28292 -20.46607 -19.17024 -18.12596
 -17.11892 -16.48288 -16.21077 -16.12223 -15.88074 -15.27648 -15.11091 -14.81464
 -14.39346 -14.24853 -14.03096 -13.90877 -13.67518 -13.52916 -13.39819 -13.22898
 -12.77361 -12.64451 -12.42497 -12.29377 -11.99023 -11.65793 -11.51714 -11.40013
 -11.30993 -11.28120 -10.97526  -9.96627  -9.71943  -9.56494  -9.23254  -0.76216
  -0.49307  -0.11676   0.14373   0.15699   0.18697   0.33119   0.59029   0.88748
   1.22402   1.54604   1.71694   2.02226   3.46554   3.52922   3.75994   3.90757
   4.02173   4.05905   4.21317   4.77910   4.97767   5.11177   5.12335   5.38352
   5.41758   5.44061   5.53014   5.55741   5.61516   5.67233   5.73589   5.78114
   5.98646   6.46191   6.71998   6.85537   6.89235  67.86133  68.15752  68.32376
  68.48784  68.61253  68.76922  68.82604  68.91768  69.41632  69.55426  69.65652
  69.89641  69.98974  70.17767  70.28201


              NET ATOMIC CHARGES AND DIPOLE CONTRIBUTIONS

  ATOM NO.   TYPE          CHARGE      No. of ELECS.   s-Pop       p-Pop       d-Pop       
    1          C          -0.476603        4.4766     1.06010     3.41650
    2          C           0.142007        3.8580     1.06515     2.79284
    3          C          -0.476692        4.4767     1.06077     3.41593
    4          N          -0.512214        5.5122     1.58248     3.92973
    5          C           0.517880        3.4821     1.10927     2.37285
    6          O          -0.534892        6.5349     1.87651     4.65838
    7          S          -0.049115        6.0491     1.90805     4.04126     0.09980
    8          C          -0.304952        4.3050     1.07394     3.23102
    9          C          -0.024325        4.0243     1.09174     2.93259
   10         Cl          -0.041492        7.0415     1.98165     5.05271     0.00713
   11          C          -0.033437        4.0334     1.12873     2.90470
   12         Cl           0.025617        6.9744     1.98104     4.98524     0.00810
   13         Cl           0.002747        6.9973     1.98137     5.00976     0.00612
   14          C           0.150715        3.8493     1.06125     2.78803
   15          C          -0.482751        4.4828     1.06191     3.42084
   16          C          -0.473121        4.4731     1.06052     3.41260
   17          H           0.158683        0.8413     0.84132
   18          H           0.155692        0.8443     0.84431
   19          H           0.149519        0.8505     0.85048
   20          H           0.170466        0.8295     0.82953
   21          H           0.153521        0.8465     0.84648
   22          H           0.147711        0.8523     0.85229
   23          H           0.161353        0.8386     0.83865
   24          H           0.199739        0.8003     0.80026
   25          H           0.190494        0.8095     0.80951
   26          H           0.144131        0.8559     0.85587
   27          H           0.165471        0.8345     0.83453
   28          H           0.153908        0.8461     0.84609
   29          H           0.153021        0.8470     0.84698
   30          H           0.158202        0.8418     0.84180
   31          H           0.153211        0.8468     0.84679
   32          H           0.155510        0.8445     0.84449
 DIPOLE           X         Y         Z       TOTAL
 POINT-CHG.    -3.982    -1.251    -1.551     4.452
 HYBRID         0.117     0.590     0.186     0.630
 SUM           -3.864    -0.660    -1.365     4.151


          ATOMIC ORBITAL ELECTRON POPULATIONS

     Atom    s        px        py        pz      x^2-y^2     xz        z^2       yz        xy
    1  C   1.06010   1.13033   1.18318   1.10299
    2  C   1.06515   1.04692   0.80691   0.93901
    3  C   1.06077   1.16488   1.13484   1.11621
    4  N   1.58248   1.11660   1.18011   1.63303
    5  C   1.10927   0.77610   0.83891   0.75785
    6  O   1.87651   1.58643   1.48054   1.59142
    7  S   1.90805   0.95374   1.21306   1.87446   0.03472   0.00598   0.02038   0.00855   0.03018
    8  C   1.07394   1.00262   1.19625   1.03215
    9  C   1.09174   1.05389   0.92168   0.95701
   10 Cl   1.98165   1.96455   1.42709   1.66107   0.00169   0.00063   0.00151   0.00256   0.00073
   11  C   1.12873   1.05917   0.94558   0.89995
   12 Cl   1.98104   1.94116   1.36288   1.68120   0.00263   0.00058   0.00127   0.00238   0.00124
   13 Cl   1.98137   1.90298   1.95937   1.14741   0.00032   0.00132   0.00266   0.00149   0.00034
   14  C   1.06125   0.92429   0.86398   0.99976
   15  C   1.06191   1.19140   1.14332   1.08612
   16  C   1.06052   1.07349   1.17753   1.16158
   17  H   0.84132
   18  H   0.84431
   19  H   0.85048
   20  H   0.82953
   21  H   0.84648
   22  H   0.85229
   23  H   0.83865
   24  H   0.80026
   25  H   0.80951
   26  H   0.85587
   27  H   0.83453
   28  H   0.84609
   29  H   0.84698
   30  H   0.84180
   31  H   0.84679
   32  H   0.84449


                    (SZ)    =    0.000000
                    (S**2)  =    0.000000


          ATOMIC ORBITAL SPIN POPULATIONS

    Atom   Total    s     px     py     pz   x^2-y^2  xz     z^2    yz     xy
         Atomic
    1  C -0.0000 -0.000 -0.000  0.000 -0.000
    2  C -0.0000  0.000  0.000  0.000 -0.000
    3  C  0.0000  0.000  0.000  0.000  0.000
    4  N -0.0000 -0.000 -0.000 -0.000 -0.000
    5  C  0.0000  0.000  0.000 -0.000  0.000
    6  O  0.0000  0.000  0.000 -0.000  0.000
    7  S -0.0000  0.000 -0.000 -0.000  0.000 -0.000 -0.000  0.000 -0.000  0.000
    8  C  0.0000 -0.000  0.000  0.000  0.000
    9  C -0.0000 -0.000 -0.000 -0.000 -0.000
   10 Cl -0.0000 -0.000 -0.000 -0.000  0.000  0.000 -0.000  0.000 -0.000 -0.000
   11  C  0.0000  0.000  0.000  0.000  0.000
   12 Cl  0.0000  0.000  0.000 -0.000  0.000  0.000  0.000  0.000  0.000  0.000
   13 Cl  0.0000  0.000  0.000  0.000 -0.000  0.000  0.000  0.000  0.000  0.000
   14  C  0.0000 -0.000 -0.000  0.000  0.000
   15  C -0.0000 -0.000 -0.000 -0.000 -0.000
   16  C  0.0000  0.000  0.000 -0.000  0.000
   17  H  0.0000  0.000
   18  H -0.0000 -0.000
   19  H -0.0000 -0.000
   20  H -0.0000 -0.000
   21  H  0.0000  0.000
   22  H -0.0000 -0.000
   23  H -0.0000 -0.000
   24  H -0.0000 -0.000
   25  H -0.0000 -0.000
   26  H  0.0000  0.000
   27  H  0.0000  0.000
   28  H  0.0000  0.000
   29  H -0.0000 -0.000
   30  H -0.0000 -0.000
   31  H  0.0000  0.000
   32  H -0.0000 -0.000

          BONDING CONTRIBUTION OF EACH ALPHA M.O.

  0.6572  0.6873  0.7259  0.8254  0.9300  0.6782  0.3082  0.1966  1.0151  0.4447
  0.9846  0.7121  0.9252  0.8234  0.9275  0.7370  0.7312  0.7718  0.8601  0.8808
  0.8612  0.9099  0.9283  0.7828  0.8497  0.9437  0.8936  0.8166  0.9011  0.7797
  0.9552  0.8789  0.8822  0.9209  0.9670  0.7495  0.7046  0.3134  0.8848  0.1076
  0.0956  0.0798  0.0785  0.5034  0.4225  0.4836  0.1886 -0.3540 -0.5791 -0.7380
 -0.2066 -0.4750 -0.5099 -0.0623 -1.0297 -0.6912 -0.9136 -0.9433 -0.8765 -0.9048
 -0.9879 -0.9799 -0.9967 -0.9936 -0.9895 -0.9955 -0.9569 -0.9696 -0.9732 -0.9690
 -0.9713 -0.9787 -0.9829 -0.9543 -0.9789 -0.9792 -0.9858 -0.9786 -0.9841 -0.9749
 -0.9866 -0.9578 -0.9548 -0.9515 -0.9536 -0.0037 -0.0013 -0.0022 -0.0017 -0.0032
 -0.0022 -0.0009 -0.0021 -0.0022 -0.0016 -0.0023 -0.0019 -0.0030 -0.0018 -0.0059

          BONDING CONTRIBUTION OF EACH BETA  M.O.

  0.6572  0.6873  0.7259  0.8254  0.9300  0.6782  0.3082  0.1966  1.0151  0.4447
  0.9846  0.7121  0.9252  0.8234  0.9275  0.7370  0.7312  0.7718  0.8601  0.8808
  0.8612  0.9099  0.9283  0.7828  0.8497  0.9437  0.8936  0.8166  0.9011  0.7797
  0.9552  0.8789  0.8822  0.9209  0.9670  0.7495  0.7046  0.3134  0.8848  0.1076
  0.0956  0.0798  0.0785  0.5034  0.4225  0.4836  0.1886 -0.3540 -0.5791 -0.7380
 -0.2066 -0.4750 -0.5099 -0.0623 -1.0297 -0.6912 -0.9136 -0.9433 -0.8765 -0.9048
 -0.9879 -0.9799 -0.9967 -0.9936 -0.9895 -0.9955 -0.9569 -0.9696 -0.9732 -0.9690
 -0.9713 -0.9787 -0.9829 -0.9543 -0.9789 -0.9792 -0.9858 -0.9786 -0.9841 -0.9749
 -0.9866 -0.9578 -0.9548 -0.9515 -0.9536 -0.0037 -0.0013 -0.0022 -0.0017 -0.0032
 -0.0022 -0.0009 -0.0021 -0.0022 -0.0016 -0.0023 -0.0019 -0.0030 -0.0018 -0.0059





            (VALENCIES)   BOND ORDERS

     1  C     (3.925)     2  C 0.998    17  H 0.965    19  H 0.965    18  H 0.964
 
     2  C     (3.885)     1  C 0.998     3  C 0.994    20  H 0.951     4  N 0.861     7  S 0.022    14  C 0.021
                          5  C 0.013
 
     3  C     (3.924)     2  C 0.994    22  H 0.969    21  H 0.965    23  H 0.964
 
     4  N     (3.162)     5  C 1.180    14  C 0.872     2  C 0.861     6  O 0.155     7  S 0.039
 
     5  C     (3.832)     6  O 1.666     4  N 1.180     7  S 0.910    14  C 0.017     2  C 0.013
 
     6  O     (1.973)     5  C 1.666     4  N 0.155     7  S 0.106    14  C 0.020
 
     7  S     (2.128)     8  C 0.984     5  C 0.910     6  O 0.106     4  N 0.039    11  C 0.026     2  C 0.022
 
     8  C     (3.932)     9  C 1.017     7  S 0.984    24  H 0.941    25  H 0.938    10 Cl 0.015    13 Cl 0.012
 
     9  C     (3.972)    11  C 1.840     8  C 1.017    10 Cl 0.998    12 Cl 0.053    13 Cl 0.051
 
    10 Cl     (1.100)     9  C 0.998    11  C 0.045    12 Cl 0.022     8  C 0.015
 
    11  C     (3.962)     9  C 1.840    12 Cl 1.021    13 Cl 1.014    10 Cl 0.045     7  S 0.026
 
    12 Cl     (1.153)    11  C 1.021     9  C 0.053    13 Cl 0.045    10 Cl 0.022
 
    13 Cl     (1.133)    11  C 1.014     9  C 0.051    12 Cl 0.045     8  C 0.012
 
    14  C     (3.900)    16  C 0.999    15  C 0.993    26  H 0.955     4  N 0.872     2  C 0.021     6  O 0.020
                          5  C 0.017
 
    15  C     (3.921)    14  C 0.993    28  H 0.967    29  H 0.966    27  H 0.963
 
    16  C     (3.924)    14  C 0.999    30  H 0.966    31  H 0.965    32  H 0.963
 
    17  H     (0.975)     1  C 0.965
 
    18  H     (0.976)     1  C 0.964
 
    19  H     (0.978)     1  C 0.965
 
    20  H     (0.971)     2  C 0.951
 
    21  H     (0.976)     3  C 0.965
 
    22  H     (0.978)     3  C 0.969
 
    23  H     (0.974)     3  C 0.964
 
    24  H     (0.960)     8  C 0.941
 
    25  H     (0.964)     8  C 0.938
 
    26  H     (0.979)    14  C 0.955
 
    27  H     (0.973)    15  C 0.963
 
    28  H     (0.976)    15  C 0.967
 
    29  H     (0.977)    15  C 0.966
 
    30  H     (0.975)    16  C 0.966
 
    31  H     (0.977)    16  C 0.965
 
    32  H     (0.976)    16  C 0.963
 

 **********************
 *                    *
 * JOB ENDED NORMALLY *
 *                    *
 **********************



 TOTAL JOB TIME:            39.39 SECONDS

 == MOPAC DONE ==
