 *******************************************************************************
 ** Site#: 36543        For non-commercial use only           Version 21.199L **
 *******************************************************************************
 ** Cite this program as: MOPAC2016, Version: 21.199L, James J. P. Stewart,   **
 ** Stewart Computational Chemistry, web: HTTP://OpenMOPAC.net. Days left: 230**
 *******************************************************************************
 **                                                                           **
 **                                MOPAC2016                                  **
 **                                                                           **
 *******************************************************************************

                              PM7 CALCULATION RESULTS

 *******************************************************************************
 *  CALCULATION DONE:                                Tue Nov 30 18:01:05 2021  *
 *  PM7        - The PM7 Hamiltonian to be used
 *  UHF        - UNRESTRICTED HARTREE-FOCK CALCULATION
 *  1SCF       - DO 1 SCF AND THEN STOP 
 *  T=         - A TIME OF 172800.0 SECONDS REQUESTED
 *  DUMP=N     - RESTART FILE WRITTEN EVERY 7200.0 SECONDS REQUESTED
 *  RELSCF     - DEFAULT SCF CRITERION MULTIPLIED BY 0.0001
 *              (DEFAULT SCF CRITERION = 0.00010)
 *******************************************************************************
PM7 PM7 1SCF UHF RELSCF=0.0001
 Title: ASE calculation

   ATOM   CHEMICAL          X               Y               Z
  NUMBER   SYMBOL      (ANGSTROMS)     (ANGSTROMS)     (ANGSTROMS)
 
     1       H          0.00000000  *   0.00000000  *   0.00000000  *
     2       H          0.00000000  *   0.00000000  *   2.63265306  *
 


          CARTESIAN COORDINATES 

    NO.       ATOM           X           Y           Z

     1         H          0.0000      0.0000      0.0000
     2         H          0.0000      0.0000      2.6327

 General Reference for PM7:
 "Optimization of Parameters for Semiempirical Methods VI: More Modifications to the 
 NDDO Approximations and Re-optimization of Parameters", J. J. P. Stewart, J. Mol. Mod., 1:32, 19 (2013)
 https://link.springer.com/article/10.1007/s00894-012-1667-x

           Empirical Formula: H2  =     2 atoms



      MOLECULAR POINT GROUP   :   D*h 


          UHF CALCULATION, NO. OF ALPHA ELECTRONS =    1
                           NO. OF BETA  ELECTRONS =    1
  SCF CRITERION =    0.1000E-07

 -------------------------------------------------------------------------------
 PM7 PM7 1SCF UHF RELSCF=0.0001
 Title: ASE calculation



     1SCF WAS SPECIFIED, SO BFGS WAS NOT USED                 
     SCF FIELD WAS ACHIEVED                                   


                              PM7 CALCULATION
                                                       MOPAC2016 (Version: 21.199L)
                                                       Tue Nov 30 18:01:05 2021
                                                       No. of days remaining = 230




          FINAL HEAT OF FORMATION =        103.74484 KCAL/MOL =     434.06842 KJ/MOL


          TOTAL ENERGY            =        -22.16004 EV
          ELECTRONIC ENERGY       =        -27.27065 EV  POINT GROUP:     D*h 
          CORE-CORE REPULSION     =          5.11060 EV
          COSMO AREA              =         40.92 SQUARE ANGSTROMS
          COSMO VOLUME            =         20.49 CUBIC ANGSTROMS

          IONIZATION POTENTIAL    =         11.070111 EV
          ALPHA SOMO LUMO (EV)    =        -11.070  3.080
          BETA  SOMO LUMO (EV)    =        -11.070  3.080
          NO. OF ALPHA ELECTRONS  =          1
          NO. OF BETA  ELECTRONS  =          1
          MOLECULAR WEIGHT        =          2.0158

          MOLECULAR DIMENSIONS (Angstroms)

            Atom       Atom       Distance
            H     2    H     1     2.63265
            H     2    H     1     0.00000
            H     1    H     2     0.00000


          SCF CALCULATIONS        =          1
 
          WALL-CLOCK TIME         =          0.012 SECONDS
          COMPUTATION TIME        =          0.010 SECONDS




   ATOM   CHEMICAL          X               Y               Z
  NUMBER   SYMBOL      (ANGSTROMS)     (ANGSTROMS)     (ANGSTROMS)
 
     1       H          0.00000000  *   0.00000000  *   0.00000000  *
     2       H          0.00000000  *   0.00000000  *   2.63265306  *

                             CARTESIAN COORDINATES

   1    H        0.000000000     0.000000000     0.000000000
   2    H        0.000000000     0.000000000     2.632653061


           Empirical Formula: H2  =     2 atoms



      MOLECULAR POINT GROUP   :   D*h 


          ALPHA EIGENVALUES  
 -11.07011   3.07954


           BETA EIGENVALUES 
 -11.07011   3.07954


              NET ATOMIC CHARGES AND DIPOLE CONTRIBUTIONS

  ATOM NO.   TYPE          CHARGE      No. of ELECS.   s-Pop       
    1          H           0.000000        1.0000     1.00000
    2          H          -0.000000        1.0000     1.00000
 DIPOLE           X         Y         Z       TOTAL
 POINT-CHG.     0.000     0.000    -0.000     0.000
 HYBRID         0.000     0.000     0.000     0.000
 SUM            0.000     0.000    -0.000     0.000


          ATOMIC ORBITAL ELECTRON POPULATIONS

     Atom    s   
    1  H   1.00000
    2  H   1.00000


                    (SZ)    =    0.000000
                    (S**2)  =    0.994879


          ATOMIC ORBITAL SPIN POPULATIONS

    Atom   Total    s   
         Atomic
    1  H  0.9974  0.997
    2  H -0.9974 -0.997

 **********************
 *                    *
 * JOB ENDED NORMALLY *
 *                    *
 **********************



 TOTAL JOB TIME:             0.02 SECONDS

 == MOPAC DONE ==
