 *******************************************************************************
 ** Site#: 36543        For non-commercial use only           Version 21.199L **
 *******************************************************************************
 ** Cite this program as: MOPAC2016, Version: 21.199L, James J. P. Stewart,   **
 ** Stewart Computational Chemistry, web: HTTP://OpenMOPAC.net. Days left: 229**
 *******************************************************************************
 **                                                                           **
 **                                MOPAC2016                                  **
 **                                                                           **
 *******************************************************************************

                              PM7 CALCULATION RESULTS

 *******************************************************************************
 *  CALCULATION DONE:                                Wed Dec  1 00:04:37 2021  *
 *  PM7        - The PM7 Hamiltonian to be used
 *  UHF        - UNRESTRICTED HARTREE-FOCK CALCULATION
 *  1SCF       - DO 1 SCF AND THEN STOP 
 *  T=         - A TIME OF 172800.0 SECONDS REQUESTED
 *  DUMP=N     - RESTART FILE WRITTEN EVERY 7200.0 SECONDS REQUESTED
 *  RELSCF     - DEFAULT SCF CRITERION MULTIPLIED BY 0.0001
 *              (DEFAULT SCF CRITERION = 0.00010)
 *******************************************************************************
PM7 PM7 1SCF UHF RELSCF=0.0001
 Title: ASE calculation

   ATOM   CHEMICAL          X               Y               Z
  NUMBER   SYMBOL      (ANGSTROMS)     (ANGSTROMS)     (ANGSTROMS)
 
     1       H          0.00000000  *   0.00000000  *   0.00000000  *
 


          CARTESIAN COORDINATES 

    NO.       ATOM           X           Y           Z

     1         H          0.0000      0.0000      0.0000

 General Reference for PM7:
 "Optimization of Parameters for Semiempirical Methods VI: More Modifications to the 
 NDDO Approximations and Re-optimization of Parameters", J. J. P. Stewart, J. Mol. Mod., 1:32, 19 (2013)
 https://link.springer.com/article/10.1007/s00894-012-1667-x

           Empirical Formula: H  =     1 atoms



      MOLECULAR POINT GROUP   :   R3  


          UHF CALCULATION, NO. OF ALPHA ELECTRONS =    1
                           NO. OF BETA  ELECTRONS =    0
  SCF CRITERION =    0.1000E-07

 -------------------------------------------------------------------------------
 PM7 PM7 1SCF UHF RELSCF=0.0001
 Title: ASE calculation



     1SCF WAS SPECIFIED, SO BFGS WAS NOT USED                 
     SCF FIELD WAS ACHIEVED                                   


                              PM7 CALCULATION
                                                       MOPAC2016 (Version: 21.199L)
                                                       Wed Dec  1 00:04:37 2021
                                                       No. of days remaining = 229




          FINAL HEAT OF FORMATION =         52.10200 KCAL/MOL =     217.99477 KJ/MOL


          TOTAL ENERGY            =        -11.07011 EV
          ELECTRONIC ENERGY       =        -11.07011 EV  POINT GROUP:     R3  
          CORE-CORE REPULSION     =          0.00000 EV
          COSMO AREA              =         21.24 SQUARE ANGSTROMS
          COSMO VOLUME            =          9.20 CUBIC ANGSTROMS

          IONIZATION POTENTIAL    =         11.070112 EV
          ALPHA SOMO LUMO (EV)    =        -11.070
          NO. OF ALPHA ELECTRONS  =          1
          NO. OF BETA  ELECTRONS  =          0
          MOLECULAR WEIGHT        =          1.0079


          SCF CALCULATIONS        =          1
 
          WALL-CLOCK TIME         =          0.017 SECONDS
          COMPUTATION TIME        =          0.009 SECONDS




   ATOM   CHEMICAL          X               Y               Z
  NUMBER   SYMBOL      (ANGSTROMS)     (ANGSTROMS)     (ANGSTROMS)
 
     1       H          0.00000000  *   0.00000000  *   0.00000000  *

                             CARTESIAN COORDINATES

   1    H        0.000000000     0.000000000     0.000000000


           Empirical Formula: H  =     1 atoms



      MOLECULAR POINT GROUP   :   R3  


          ALPHA EIGENVALUES  
 -11.07011


           BETA EIGENVALUES 
   3.07954


              NET ATOMIC CHARGES AND DIPOLE CONTRIBUTIONS

  ATOM NO.   TYPE          CHARGE      No. of ELECS.   s-Pop       
    1          H           0.000000        1.0000     1.00000
 DIPOLE           X         Y         Z       TOTAL
 POINT-CHG.     0.000     0.000     0.000     0.000
 HYBRID         0.000     0.000     0.000     0.000
 SUM            0.000     0.000     0.000     0.000


          ATOMIC ORBITAL ELECTRON POPULATIONS

     Atom    s   
    1  H   1.00000


                    (SZ)    =    0.500000
                    (S**2)  =    0.750000


          ATOMIC ORBITAL SPIN POPULATIONS

    Atom   Total    s   
         Atomic
    1  H  1.0000  1.000

 **********************
 *                    *
 * JOB ENDED NORMALLY *
 *                    *
 **********************



 TOTAL JOB TIME:             0.03 SECONDS

 == MOPAC DONE ==
