,ID,Name,InChI,InChIKey,SMILES,Solubility
5521,C-872,methaqualone;  2-methyl-3-(2-tolyl)quinazolin-4-one,"InChI=1S/C16H14N2O/c1-11-7-3-6-10-15(11)18-12(2)17-14-9-5-4-8-13(14)16(18)19/h3-10H,1-2H3",JEYCTXHKTXCGPB-UHFFFAOYSA-N,CC1=CC=CC=C1N2C(=NC3=C(C=CC=C3)C2=O)C,-2.92
5522,C-873,sulfamethazine;  sulfadimidine,"InChI=1S/C12H14N4O2S/c1-8-7-9(2)15-12(14-8)16-19(17,18)11-5-3-10(13)4-6-11/h3-7H,13H2,1-2H3,(H,14,15,16)",ASWVTGNCAZCNNR-UHFFFAOYSA-N,CC1=CC(=NC(=N1)N[S](=O)(=O)C2=CC=C(N)C=C2)C,-2.27
5523,C-874,"2,3,3',4,4',5'-hexachlorobiphenyl",InChI=1S/C12H4Cl6/c13-7-2-1-6(10(16)12(7)18)5-3-8(14)11(17)9(15)4-5/h1-4H,YTWXDQVNPCIEOX-UHFFFAOYSA-N,ClC1=CC=C(C2=CC(=C(Cl)C(=C2)Cl)Cl)C(=C1Cl)Cl,-9.1
5524,C-875,n1-(5-chloro-2-methylphenyl)sulfanilamide;  5-chloro-2-methylsulfabenzene,"InChI=1S/C13H13ClN2O2S/c1-9-2-3-10(14)8-13(9)16-19(17,18)12-6-4-11(15)5-7-12/h2-8,16H,15H2,1H3",PGWAMIHTVMBZDQ-UHFFFAOYSA-N,CC1=C(N[S](=O)(=O)C2=CC=C(N)C=C2)C=C(Cl)C=C1,-3.98
5525,C-876,"2,3,3',4,4',5-hexachlorobiphenyl",InChI=1S/C12H4Cl6/c13-7-2-1-5(3-8(7)14)6-4-9(15)11(17)12(18)10(6)16/h1-4H,LCXMEXLGMKFLQO-UHFFFAOYSA-N,ClC1=C(Cl)C=C(C=C1)C2=CC(=C(Cl)C(=C2Cl)Cl)Cl,-8.52
5526,C-877,n1-(2-chloro-4-methylphenyl)sulfanilamide;  2-chloro-4-methylsulfabenzene,"InChI=1S/C13H13ClN2O2S/c1-9-2-7-13(12(14)8-9)16-19(17,18)11-5-3-10(15)4-6-11/h2-8,16H,15H2,1H3",IIQTWTHBDAEKBJ-UHFFFAOYSA-N,CC1=CC(=C(N[S](=O)(=O)C2=CC=C(N)C=C2)C=C1)Cl,-4.32
5527,C-878,"1,2-benzanthracene;  benz[a]anthracene",InChI=1S/C18H12/c1-2-7-15-12-18-16(11-14(15)6-1)10-9-13-5-3-4-8-17(13)18/h1-12H,DXBHBZVCASKNBY-UHFFFAOYSA-N,C1=CC2=CC3=CC=C4C=CC=CC4=C3C=C2C=C1,-7.36
5528,C-879,oxazepam,"InChI=1S/C15H11ClN2O2/c16-10-6-7-12-11(8-10)13(9-4-2-1-3-5-9)18-15(20)14(19)17-12/h1-8,15,20H,(H,17,19)",ADIMAYPTOBDMTL-UHFFFAOYSA-N,OC1N=C(C2=CC=CC=C2)C3=C(NC1=O)C=CC(=C3)Cl,-3.98
5529,C-880,"2,2',4,4',5,5'-hexachlorobiphenyl",InChI=1S/C12H4Cl6/c13-7-3-11(17)9(15)1-5(7)6-2-10(16)12(18)4-8(6)14/h1-4H,MVWHGTYKUMDIHL-UHFFFAOYSA-N,ClC1=CC(=C(C=C1Cl)C2=CC(=C(Cl)C=C2Cl)Cl)Cl,-8.53
5530,C-881,"2,2',3,4,4',5'-hexachlorobiphenyl",InChI=1S/C12H4Cl6/c13-7-2-1-5(11(17)12(7)18)6-3-9(15)10(16)4-8(6)14/h1-4H,RPUMZMSNLZHIGZ-UHFFFAOYSA-N,ClC1=CC=C(C(=C1Cl)Cl)C2=C(Cl)C=C(Cl)C(=C2)Cl,-8.4
5531,C-882,n-(2-nitrophenyl)benzenesulfonamide,"InChI=1S/C12H10N2O4S/c15-14(16)12-9-5-4-8-11(12)13-19(17,18)10-6-2-1-3-7-10/h1-9,13H",QYEQJQLZLZRQEB-UHFFFAOYSA-N,[O-][N+](=O)C1=CC=CC=C1N[S](=O)(=O)C2=CC=CC=C2,-4.01
5532,C-883,"2,3,3',4,4',6-hexachlorobiphenyl",InChI=1S/C12H4Cl6/c13-6-2-1-5(3-7(6)14)10-8(15)4-9(16)11(17)12(10)18/h1-4H,ZQUPQXINXTWCQR-UHFFFAOYSA-N,ClC1=C(Cl)C=C(C=C1)C2=C(Cl)C=C(Cl)C(=C2Cl)Cl,-7.66
5533,C-884,isoxaben,"InChI=1S/C18H24N2O4/c1-6-18(3,7-2)14-11-15(24-20-14)19-17(21)16-12(22-4)9-8-10-13(16)23-5/h8-11H,6-7H2,1-5H3,(H,19,21)",PMHURSZHKKJGBM-UHFFFAOYSA-N,CCC(C)(CC)C1=NOC(=C1)NC(=O)C2=C(OC)C=CC=C2OC,-5.52
5534,C-885,"2,2',3,3',4,4'-hexachlorobiphenyl",InChI=1S/C12H4Cl6/c13-7-3-1-5(9(15)11(7)17)6-2-4-8(14)12(18)10(6)16/h1-4H,BTAGRXWGMYTPBY-UHFFFAOYSA-N,ClC1=C(Cl)C(=C(C=C1)C2=CC=C(Cl)C(=C2Cl)Cl)Cl,-8.78
5535,C-886,"2,2',3,4',5,5'-hexachlorobiphenyl",InChI=1S/C12H4Cl6/c13-5-1-7(12(18)11(17)2-5)6-3-9(15)10(16)4-8(6)14/h1-4H,BQHCQAQLTCQFJZ-UHFFFAOYSA-N,ClC1=CC(=C(Cl)C(=C1)C2=C(Cl)C=C(Cl)C(=C2)Cl)Cl,-8.58
5536,C-887,chrysene,InChI=1S/C18H12/c1-3-7-15-13(5-1)9-11-18-16-8-4-2-6-14(16)10-12-17(15)18/h1-12H,WDECIBYCCFPHNR-UHFFFAOYSA-N,C1=CC2=C(C=C1)C3=C(C=C2)C4=C(C=CC=C4)C=C3,-8.06
5537,C-888,"2,3,3',4',5',6-hexachlorobiphenyl",InChI=1S/C12H4Cl6/c13-6-1-2-7(14)12(18)10(6)5-3-8(15)11(17)9(16)4-5/h1-4H,HAZQOLYHFUUJJN-UHFFFAOYSA-N,ClC1=CC=C(Cl)C(=C1Cl)C2=CC(=C(Cl)C(=C2)Cl)Cl,-8.27
5538,C-889,"2,3,3',4',5,6-hexachlorobiphenyl",InChI=1S/C12H4Cl6/c13-6-2-1-5(3-7(6)14)10-11(17)8(15)4-9(16)12(10)18/h1-4H,ZAGRQXMWMRUYRB-UHFFFAOYSA-N,ClC1=C(Cl)C=C(C=C1)C2=C(Cl)C(=CC(=C2Cl)Cl)Cl,-8.48
5539,C-890,"2,2',4,4',5,6'-hexachlorobiphenyl",InChI=1S/C12H4Cl6/c13-5-1-10(17)12(11(18)2-5)6-3-8(15)9(16)4-7(6)14/h1-4H,QXZHEJWDLVUFFB-UHFFFAOYSA-N,ClC1=CC(=C(C(=C1)Cl)C2=CC(=C(Cl)C=C2Cl)Cl)Cl,-8.12
5540,C-891,n1-(2-chlorophenyl)-2-methylsulfanilamide; 2-chloro-1-(4-amino-2-methylphenylsulfonamido)benzene,"InChI=1S/C13H13ClN2O2S/c1-9-8-10(15)6-7-13(9)19(17,18)16-12-5-3-2-4-11(12)14/h2-8,16H,15H2,1H3",RYGRTXQPJZRDAK-UHFFFAOYSA-N,CC1=C(C=CC(=C1)N)[S](=O)(=O)NC2=C(Cl)C=CC=C2,-5.05
5541,C-892,"2,2',3,4,5,5'-hexachlorobiphenyl",InChI=1S/C12H4Cl6/c13-5-1-2-8(14)6(3-5)7-4-9(15)11(17)12(18)10(7)16/h1-4H,UCLKLGIYGBLTSM-UHFFFAOYSA-N,ClC1=CC(=C(Cl)C=C1)C2=CC(=C(Cl)C(=C2Cl)Cl)Cl,-7.68
5542,C-893,"2,2',3,4,4',6'-hexachlorobiphenyl",InChI=1S/C12H4Cl6/c13-5-3-8(15)10(9(16)4-5)6-1-2-7(14)12(18)11(6)17/h1-4H,XBBRGUHRZBZMPP-UHFFFAOYSA-N,ClC1=CC(=C(C(=C1)Cl)C2=CC=C(Cl)C(=C2Cl)Cl)Cl,-8.24
5543,C-894,griseofulvin,"InChI=1S/C17H17ClO6/c1-8-5-9(19)6-12(23-4)17(8)16(20)13-10(21-2)7-11(22-3)14(18)15(13)24-17/h6-8H,5H2,1-4H3",DDUHZTYCFQRHIY-UHFFFAOYSA-N,COC1=CC(=C2C(=O)C3(OC2=C1Cl)C(C)CC(=O)C=C3OC)OC,-3.97
5544,C-895,"2,2',3,3',4,5-hexachlorobiphenyl",InChI=1S/C12H4Cl6/c13-7-3-1-2-5(9(7)15)6-4-8(14)11(17)12(18)10(6)16/h1-4H,VQQKIXKPMJTUMP-UHFFFAOYSA-N,ClC1=CC=CC(=C1Cl)C2=CC(=C(Cl)C(=C2Cl)Cl)Cl,-8.07
5545,C-896,"2,3,3',5,5',6-hexachlorobiphenyl",InChI=1S/C12H4Cl6/c13-6-1-5(2-7(14)3-6)10-11(17)8(15)4-9(16)12(10)18/h1-4H,ZEATXTCWXKQPHO-UHFFFAOYSA-N,ClC1=CC(=CC(=C1)C2=C(Cl)C(=CC(=C2Cl)Cl)Cl)Cl,-8.27
5546,C-897,diclofop-methyl,"InChI=1S/C16H14Cl2O4/c1-10(16(19)20-2)21-12-4-6-13(7-5-12)22-15-8-3-11(17)9-14(15)18/h3-10H,1-2H3",BACHBFVBHLGWSL-UHFFFAOYSA-N,COC(=O)C(C)OC1=CC=C(OC2=C(Cl)C=C(Cl)C=C2)C=C1,-3.82
5547,C-898,"2,2',3,4,5',6-hexachlorobiphenyl",InChI=1S/C12H4Cl6/c13-5-1-2-7(14)6(3-5)10-8(15)4-9(16)11(17)12(10)18/h1-4H,CXXRQFOKRZJAJA-UHFFFAOYSA-N,ClC1=CC(=C(Cl)C=C1)C2=C(Cl)C=C(Cl)C(=C2Cl)Cl,-8.01
5548,C-899,"2,2',3,3',4,6'-hexachlorobiphenyl",InChI=1S/C12H4Cl6/c13-6-3-4-7(14)11(17)9(6)5-1-2-8(15)12(18)10(5)16/h1-4H,OKBJVIVEFXPEOU-UHFFFAOYSA-N,ClC1=CC=C(C(=C1Cl)Cl)C2=C(Cl)C(=CC=C2Cl)Cl,-7.65
5549,C-900,"2,2',4,4',6,6'-hexachlorobiphenyl",InChI=1S/C12H4Cl6/c13-5-1-7(15)11(8(16)2-5)12-9(17)3-6(14)4-10(12)18/h1-4H,ICOAEPDGFWLUTI-UHFFFAOYSA-N,ClC1=CC(=C(C(=C1)Cl)C2=C(Cl)C=C(Cl)C=C2Cl)Cl,-8.71
5550,C-901,"1,5-bis(butanoyloxymethyl)allopurinol","InChI=1S/C15H20N4O5/c1-3-5-12(20)23-9-18-8-16-14-11(15(18)22)7-17-19(14)10-24-13(21)6-4-2/h7-8H,3-6,9-10H2,1-2H3",QQAOTACZYKWDQH-UHFFFAOYSA-N,CCCC(=O)OCN1C=NC2=C(C=N[N]2COC(=O)CCC)C1=O,-3.83
5551,C-902,"triamterene; 2,4,7-triamino-6-phenylpteridine","InChI=1S/C12H11N7/c13-9-7(6-4-2-1-3-5-6)16-8-10(14)18-12(15)19-11(8)17-9/h1-5H,(H6,13,14,15,17,18,19)",FNYLWPVRPXGIIP-UHFFFAOYSA-N,NC1=NC2=C(N=C(C3=CC=CC=C3)C(=N2)N)C(=N1)N,-3.95
5552,C-903,"2,2',3,3',4,6-hexachlorobiphenyl",InChI=1S/C12H4Cl6/c13-6-3-1-2-5(10(6)16)9-7(14)4-8(15)11(17)12(9)18/h1-4H,WDLTVNWWEZJMPF-UHFFFAOYSA-N,ClC1=CC=CC(=C1Cl)C2=C(Cl)C=C(Cl)C(=C2Cl)Cl,-8.48
5553,C-904,"2,2',3,4,5,6'-hexachlorobiphenyl",InChI=1S/C12H4Cl6/c13-6-2-1-3-7(14)9(6)5-4-8(15)11(17)12(18)10(5)16/h1-4H,UQPQKLGBEKEZBV-UHFFFAOYSA-N,ClC1=C(Cl)C(=C(Cl)C(=C1)C2=C(Cl)C=CC=C2Cl)Cl,-8.13
5554,C-905,"2,2',3,3',5,6'-hexachlorobiphenyl",InChI=1S/C12H4Cl6/c13-5-3-6(11(17)9(16)4-5)10-7(14)1-2-8(15)12(10)18/h1-4H,UUTNFLRSJBQQJM-UHFFFAOYSA-N,ClC1=CC(=C(Cl)C(=C1)C2=C(Cl)C(=CC=C2Cl)Cl)Cl,-7.82
5555,C-906,"2,2',3,5,5',6-hexachlorobiphenyl",InChI=1S/C12H4Cl6/c13-5-1-2-7(14)6(3-5)10-11(17)8(15)4-9(16)12(10)18/h1-4H,UHCLFIWDCYOTOL-UHFFFAOYSA-N,ClC1=CC(=C(Cl)C=C1)C2=C(Cl)C(=CC(=C2Cl)Cl)Cl,-7.42
5556,C-907,triamcinolone hexacetonide,"InChI=1S/C30H41FO7/c1-25(2,3)15-24(35)36-16-22(34)30-23(37-26(4,5)38-30)13-20-19-9-8-17-12-18(32)10-11-27(17,6)29(19,31)21(33)14-28(20,30)7/h10-12,19-21,23,33H,8-9,13-16H2,1-7H3",TZIZWYVVGLXXFV-UHFFFAOYSA-N,CC(C)(C)CC(=O)OCC(=O)C12OC(C)(C)OC1CC3C4CCC5=CC(=O)C=CC5(C)C4(F)C(O)CC23C,-5.12
5557,C-908,"2,2',3,3',5,6-hexachlorobiphenyl",InChI=1S/C12H4Cl6/c13-6-3-1-2-5(10(6)16)9-11(17)7(14)4-8(15)12(9)18/h1-4H,RVWLHPJFOKUPNM-UHFFFAOYSA-N,ClC1=CC=CC(=C1Cl)C2=C(Cl)C(=CC(=C2Cl)Cl)Cl,-8.6
5558,C-909,iprodione,"InChI=1S/C13H13Cl2N3O3/c1-7(2)16-12(20)17-6-11(19)18(13(17)21)10-4-8(14)3-9(15)5-10/h3-5,7H,6H2,1-2H3,(H,16,20)",ONUFESLQCSAYKA-UHFFFAOYSA-N,CC(C)NC(=O)N1CC(=O)N(C1=O)C2=CC(=CC(=C2)Cl)Cl,-4.41
5559,C-910,nitrazepam,"InChI=1S/C15H11N3O3/c19-14-9-16-15(10-4-2-1-3-5-10)12-8-11(18(20)21)6-7-13(12)17-14/h1-8H,9H2,(H,17,19)",KJONHKAYOJNZEC-UHFFFAOYSA-N,[O-][N+](=O)C1=CC=C2NC(=O)CN=C(C3=CC=CC=C3)C2=C1,-3.8
5560,C-911,sulfacytine;  1-ethyl-4-sulfapyrimidine-2-one,"InChI=1S/C12H14N4O3S/c1-2-16-8-7-11(14-12(16)17)15-20(18,19)10-5-3-9(13)4-6-10/h3-8H,2,13H2,1H3,(H,14,15,17)",SIBQAECNSSQUOD-UHFFFAOYSA-N,CCN1C=CC(=NC1=O)N[S](=O)(=O)C2=CC=C(N)C=C2,-2.23
5561,C-912,"2,2',3,3',6,6'-hexachlorobiphenyl",InChI=1S/C12H4Cl6/c13-5-1-3-7(15)11(17)9(5)10-6(14)2-4-8(16)12(10)18/h1-4H,FZFUUSROAHKTTF-UHFFFAOYSA-N,ClC1=C(Cl)C(=C(Cl)C=C1)C2=C(Cl)C(=CC=C2Cl)Cl,-7.56
5562,C-913,5-methyl-2-(4-nitrophenylsulfonamido)pyridine;  n-(5-methylpyridin-2-yl)-4-nitrobenzenesulfonamide,"InChI=1S/C12H11N3O4S/c1-9-2-7-12(13-8-9)14-20(18,19)11-5-3-10(4-6-11)15(16)17/h2-8H,1H3,(H,13,14)",GSASPEJNWFVWQK-UHFFFAOYSA-N,CC1=CC=C(N[S](=O)(=O)C2=CC=C(C=C2)[N+]([O-])=O)N=C1,-4.29
5563,C-914,"triphenylene; 9,10-benzphenanthrene",InChI=1S/C18H12/c1-2-8-14-13(7-1)15-9-3-4-11-17(15)18-12-6-5-10-16(14)18/h1-12H,SLGBZMMZGDRARJ-UHFFFAOYSA-N,C1=CC2=C(C=C1)C3=C(C=CC=C3)C4=C2C=CC=C4,-6.74
5565,C-916,n1-(4-nitrophenyl)sulfanilamide,"InChI=1S/C12H11N3O4S/c13-9-1-7-12(8-2-9)20(18,19)14-10-3-5-11(6-4-10)15(16)17/h1-8,14H,13H2",ACJNABKXDUDYAM-UHFFFAOYSA-N,NC1=CC=C(C=C1)[S](=O)(=O)NC2=CC=C(C=C2)[N+]([O-])=O,-3.94
5566,C-917,"1,2,4-trichlorodibenzodioxin",InChI=1S/C12H5Cl3O2/c13-6-5-7(14)11-12(10(6)15)17-9-4-2-1-3-8(9)16-11/h1-5H,HRVUKLBFRPWXPJ-UHFFFAOYSA-N,ClC1=C(Cl)C2=C(OC3=C(O2)C=CC=C3)C(=C1)Cl,-7.53
5567,C-918,thalidomide,"InChI=1S/C13H10N2O4/c16-10-6-5-9(11(17)14-10)15-12(18)7-3-1-2-4-8(7)13(15)19/h1-4,9H,5-6H2,(H,14,16,17)",UEJJHQNACJXSKW-UHFFFAOYSA-N,O=C1CCC(N2C(=O)C3=C(C=CC=C3)C2=O)C(=O)N1,-3.7
5568,C-919,chlordiazepoxide,"InChI=1S/C16H14ClN3O/c1-18-15-10-20(21)16(11-5-3-2-4-6-11)13-9-12(17)7-8-14(13)19-15/h2-9H,10H2,1H3,(H,18,19)",ANTSCNMPPGJYLG-UHFFFAOYSA-N,CNC1=NC2=CC=C(Cl)C=C2C(=[N+]([O-])C1)C3=CC=CC=C3,-4.48
5569,C-920,4-chloro-n1-(2-chlorophenyl)sulfanilamide,"InChI=1S/C12H10Cl2N2O2S/c13-8-1-4-10(5-2-8)16-19(17,18)12-6-3-9(15)7-11(12)14/h1-7,16H,15H2",RLAKZPRFFJDPOI-UHFFFAOYSA-N,NC1=CC=C(C(=C1)Cl)[S](=O)(=O)NC2=CC=C(Cl)C=C2,-4.59
5570,C-921,"n1-(2,5-dichlorophenyl)sulfanilamide","InChI=1S/C12H10Cl2N2O2S/c13-8-1-6-11(14)12(7-8)16-19(17,18)10-4-2-9(15)3-5-10/h1-7,16H,15H2",PQUPSQYCUSDJGL-UHFFFAOYSA-N,NC1=CC=C(C=C1)[S](=O)(=O)NC2=CC(=CC=C2Cl)Cl,-4.4
5571,C-922,"n1-(2,3-dichlorophenyl)sulfanilamide","InChI=1S/C12H10Cl2N2O2S/c13-10-2-1-3-11(12(10)14)16-19(17,18)9-6-4-8(15)5-7-9/h1-7,16H,15H2",DUAASAVOKXBDLI-UHFFFAOYSA-N,NC1=CC=C(C=C1)[S](=O)(=O)NC2=CC=CC(=C2Cl)Cl,-4.73
5572,C-923,pefloxacin,"InChI=1S/C17H20FN3O3/c1-3-20-10-12(17(23)24)16(22)11-8-13(18)15(9-14(11)20)21-6-4-19(2)5-7-21/h8-10H,3-7H2,1-2H3,(H,23,24)",FHFYDNQZQSQIAI-UHFFFAOYSA-N,CCN1C=C(C(O)=O)C(=O)C2=C1C=C(N3CCN(C)CC3)C(=C2)F,-1.47
5573,C-924,nifedipine,"InChI=1S/C17H18N2O6/c1-9-13(16(20)24-3)15(14(10(2)18-9)17(21)25-4)11-7-5-6-8-12(11)19(22)23/h5-8,15,18H,1-4H3",HYIMSNHJOBLJNT-UHFFFAOYSA-N,COC(=O)C1=C(C)NC(=C(C1C2=C(C=CC=C2)[N+]([O-])=O)C(=O)OC)C,-4.8
5574,C-925,"2-hydroxy-n-(3,5-dimethyl-4-isoxazolyl)-1,4-naphthoquinone-4-imine","InChI=1S/C15H12N2O3/c1-8-14(9(2)20-17-8)16-12-7-13(18)15(19)11-6-4-3-5-10(11)12/h3-7,18H,1-2H3",JNQQEDYUWRZNDU-UHFFFAOYSA-N,CC1=C(N=C2C=C(O)C(=O)C3=C2C=CC=C3)C(=NO1)C,-3.89
5575,C-926,"7-hydroxy-4-oxo-4,5,6,7-tetrahydro-2-sulfamoylthieno[3,2-b]thiopyran","InChI=1S/C7H9NO4S3/c8-15(11,12)6-3-5-7(13-6)4(9)1-2-14(5)10/h3-4,9H,1-2H2,(H2,8,11,12)",XEROSHXMTSNDBW-UHFFFAOYSA-N,N[S](=O)(=O)C1=CC2=C(S1)C(O)CC[S]2=O,-1.57
5576,C-927,oryzalin;  surflan,"InChI=1S/C12H18N4O6S/c1-3-5-14(6-4-2)12-10(15(17)18)7-9(23(13,21)22)8-11(12)16(19)20/h7-8H,3-6H2,1-2H3,(H2,13,21,22)",UNAHYJYOSSSJHH-UHFFFAOYSA-N,CCCN(CCC)C1=C(C=C(C=C1[N+]([O-])=O)[S](N)(=O)=O)[N+]([O-])=O,-5.13
5577,C-928,n1-(2-nitrophenyl)sulfanilamide,"InChI=1S/C12H11N3O4S/c13-9-5-7-10(8-6-9)20(18,19)14-11-3-1-2-4-12(11)15(16)17/h1-8,14H,13H2",BRVWBJZREZWBRX-UHFFFAOYSA-N,NC1=CC=C(C=C1)[S](=O)(=O)NC2=CC=CC=C2[N+]([O-])=O,-4.49
5578,C-929,2-chloro-n1-(2-chlorophenyl)sulfanilamide,"InChI=1S/C12H10Cl2N2O2S/c13-9-3-1-2-4-11(9)16-19(17,18)12-6-5-8(15)7-10(12)14/h1-7,16H,15H2",WLGLMOOOFGAYSX-UHFFFAOYSA-N,NC1=CC(=C(C=C1)[S](=O)(=O)NC2=CC=CC=C2Cl)Cl,-5.11
5579,C-930,benalaxyl,"InChI=1S/C20H23NO3/c1-14-9-8-10-15(2)19(14)21(16(3)20(23)24-4)18(22)13-17-11-6-5-7-12-17/h5-12,16H,13H2,1-4H3",CJPQIRJHIZUAQP-UHFFFAOYSA-N,COC(=O)C(C)N(C(=O)CC1=CC=CC=C1)C2=C(C)C=CC=C2C,-3.94
5580,C-931,digoxin,"InChI=1S/C41H64O14/c1-19-36(47)28(42)15-34(50-19)54-38-21(3)52-35(17-30(38)44)55-37-20(2)51-33(16-29(37)43)53-24-8-10-39(4)23(13-24)6-7-26-27(39)14-31(45)40(5)25(9-11-41(26,40)48)22-12-32(46)49-18-22/h12,19-21,23-31,33-38,42-45,47-48H,6-11,13-18H2,1-5H3",LTMHDMANZUZIPE-UHFFFAOYSA-N,CC1OC(CC(O)C1O)OC2C(O)CC(OC2C)OC3C(O)CC(OC3C)OC4CCC5(C)C(CCC6C5CC(O)C7(C)C(CCC67O)C8=CC(=O)OC8)C4,-4.45
5581,C-932,n1-(3-chloro-2-methoxyphenyl)sulfanilamide; 1-sulfanilamido-3-chloro-2-methoxybenzene; 1-sulfa-3-chloro-2-methoxybenzene,"InChI=1S/C13H13ClN2O3S/c1-19-13-11(14)3-2-4-12(13)16-20(17,18)10-7-5-9(15)6-8-10/h2-8,16H,15H2,1H3",GUQMUFCFDMUPMN-UHFFFAOYSA-N,COC1=C(N[S](=O)(=O)C2=CC=C(N)C=C2)C=CC=C1Cl,-4.15
5582,C-933,promethazine,"InChI=1S/C17H20N2S/c1-13(18(2)3)12-19-14-8-4-6-10-16(14)20-17-11-7-5-9-15(17)19/h4-11,13H,12H2,1-3H3",PWWVAXIEGOYWEE-UHFFFAOYSA-N,CC(CN1C2=C(SC3=C1C=CC=C3)C=CC=C2)N(C)C,-4.39
5583,C-934,ciprofloxacin,"InChI=1S/C17H18FN3O3/c18-13-7-11-14(8-15(13)20-5-3-19-4-6-20)21(10-1-2-10)9-12(16(11)22)17(23)24/h7-10,19H,1-6H2,(H,23,24)",MYSWGUAQZAJSOK-UHFFFAOYSA-N,OC(=O)C1=CN(C2CC2)C3=C(C=C(F)C(=C3)N4CCNCC4)C1=O,-3.62
5584,C-935,sufentanil,"InChI=1S/C22H30N2O2S/c1-3-21(25)24(19-8-5-4-6-9-19)22(18-26-2)12-15-23(16-13-22)14-11-20-10-7-17-27-20/h4-10,17H,3,11-16,18H2,1-2H3",GGCSSNBKKAUURC-UHFFFAOYSA-N,CCC(=O)N(C1=CC=CC=C1)C2(CCN(CCC3=CC=CS3)CC2)COC,-3.71
5585,C-936,dialifor;  dialifos,"InChI=1S/C14H17ClNO4PS2/c1-3-19-21(22,20-4-2)23-12(9-15)16-13(17)10-7-5-6-8-11(10)14(16)18/h5-8,12H,3-4,9H2,1-2H3",MUMQYXACQUZOFP-UHFFFAOYSA-N,CCO[P](=S)(OCC)SC(CCl)N1C(=O)C2=C(C=CC=C2)C1=O,-6.34
5586,C-937,loxapine,"InChI=1S/C18H18ClN3O/c1-21-8-10-22(11-9-21)18-14-12-13(19)6-7-16(14)23-17-5-3-2-4-15(17)20-18/h2-7,12H,8-11H2,1H3",XJGVXQDUIWGIRW-UHFFFAOYSA-N,CN1CCN(CC1)C2=NC3=C(OC4=C2C=C(Cl)C=C4)C=CC=C3,-4.42
5587,C-938,fenpropathrin,"InChI=1S/C22H23NO3/c1-21(2)19(22(21,3)4)20(24)26-18(14-23)15-9-8-12-17(13-15)25-16-10-6-5-7-11-16/h5-13,18-19H,1-4H3",XQUXKZZNEFRCAW-UHFFFAOYSA-N,CC1(C)C(C(=O)OC(C#N)C2=CC(=CC=C2)OC3=CC=CC=C3)C1(C)C,-6.03
5588,C-939,3-(acetyloxymethyl)phenytoin,"InChI=1S/C18H16N2O4/c1-13(21)24-12-20-16(22)18(19-17(20)23,14-8-4-2-5-9-14)15-10-6-3-7-11-15/h2-11H,12H2,1H3,(H,19,23)",FBFCVJNZKBVVRP-UHFFFAOYSA-N,CC(=O)OCN1C(=O)NC(C1=O)(C2=CC=CC=C2)C3=CC=CC=C3,-4.47
5589,C-940,"bifenox;  5-(2,4-dichlorophenoxy)-2-nitrobenzoic acid methyl ester","InChI=1S/C14H9Cl2NO5/c1-21-14(18)10-7-9(3-4-12(10)17(19)20)22-13-5-2-8(15)6-11(13)16/h2-7H,1H3",SUSRORUBZHMPCO-UHFFFAOYSA-N,COC(=O)C1=CC(=CC=C1[N+]([O-])=O)OC2=CC=C(Cl)C=C2Cl,-5.99
5590,C-941,n-(methyl)thalidomide,"InChI=1S/C14H12N2O4/c1-15-11(17)7-6-10(14(15)20)16-12(18)8-4-2-3-5-9(8)13(16)19/h2-5,10H,6-7H2,1H3",IYYPLFUVXTVBLD-UHFFFAOYSA-N,CN1C(=O)CCC(N2C(=O)C3=C(C=CC=C3)C2=O)C1=O,-2.99
5591,C-942,n1-(4-iodophenyl)sulfanilamide,"InChI=1S/C12H11IN2O2S/c13-9-1-5-11(6-2-9)15-18(16,17)12-7-3-10(14)4-8-12/h1-8,15H,14H2",GNYYVWOTRVNKCO-UHFFFAOYSA-N,NC1=CC=C(C=C1)[S](=O)(=O)NC2=CC=C(I)C=C2,-4.52
5592,C-943,"2,3,3',4,4',5,5'-heptachlorobiphenyl",InChI=1S/C12H3Cl7/c13-6-1-4(2-7(14)10(6)17)5-3-8(15)11(18)12(19)9(5)16/h1-3H,XUAWBXBYHDRROL-UHFFFAOYSA-N,ClC1=CC(=CC(=C1Cl)Cl)C2=C(Cl)C(=C(Cl)C(=C2)Cl)Cl,-8.72
5593,C-944,azinphos-methyl;  methyl-azinphos,"InChI=1S/C10H12N3O3PS2/c1-15-17(18,16-2)19-7-13-10(14)8-5-3-4-6-9(8)11-12-13/h3-6H,7H2,1-2H3",CJJOSEISRRTUQB-UHFFFAOYSA-N,CO[P](=S)(OC)SCN1N=NC2=CC=CC=C2C1=O,-4.04
5594,C-945,mebendazole,"InChI=1S/C16H13N3O3/c1-22-16(21)19-15-17-12-8-7-11(9-13(12)18-15)14(20)10-5-3-2-4-6-10/h2-9H,1H3,(H2,17,18,19,21)",OPXLLQIJSORQAM-UHFFFAOYSA-N,COC(=O)NC1=NC2=CC(=CC=C2[NH]1)C(=O)C3=CC=CC=C3,-3.88
5595,C-946,nimesulide;  4-nitro-2-phenoxymethanesulfonanilide,"InChI=1S/C13H12N2O5S/c1-21(18,19)14-12-8-7-10(15(16)17)9-13(12)20-11-5-3-2-4-6-11/h2-9,14H,1H3",HYWYRSMBCFDLJT-UHFFFAOYSA-N,C[S](=O)(=O)NC1=C(OC2=CC=CC=C2)C=C(C=C1)[N+]([O-])=O,-1.65
5596,C-947,azathioprine,"InChI=1S/C9H7N7O2S/c1-15-4-14-7(16(17)18)9(15)19-8-5-6(11-2-10-5)12-3-13-8/h2-4H,1H3,(H,10,11,12,13)",LMEKQMALGUDUQG-UHFFFAOYSA-N,C[N]1C=NC(=C1SC2=NC=NC3=C2[NH]C=N3)[N+]([O-])=O,-3.21
5597,C-948,"2-benzyl-3-methyl-2,3-dihydro-1h-imidazo[5,1b]quinazolin-9-one; 2-benzyl-3-methylimidazoquinazolone","InChI=1S/C18H17N3O/c1-13-17-19-16-10-6-5-9-15(16)18(22)21(17)12-20(13)11-14-7-3-2-4-8-14/h2-10,13H,11-12H2,1H3",PAEHEULFAIRJNM-UHFFFAOYSA-N,CC1N(CN2C(=O)C3=C(C=CC=C3)N=C12)CC4=CC=CC=C4,-4.0
5598,C-949,oxyfluorfen,"InChI=1S/C15H11ClF3NO4/c1-2-23-14-8-10(4-5-12(14)20(21)22)24-13-6-3-9(7-11(13)16)15(17,18)19/h3-8H,2H2,1H3",OQMBBFQZGJFLBU-UHFFFAOYSA-N,CCOC1=C(C=CC(=C1)OC2=C(Cl)C=C(C=C2)C(F)(F)F)[N+]([O-])=O,-6.49
5599,C-950,4-(5-ethyl-3-methylisoxazol-4-ylimino)-2-hydroxy-4h-naphthalen-1-one,"InChI=1S/C16H14N2O3/c1-3-14-15(9(2)18-21-14)17-12-8-13(19)16(20)11-7-5-4-6-10(11)12/h4-8,19H,3H2,1-2H3",TWUYULBKODYURR-UHFFFAOYSA-N,CCC1=C(N=C2C=C(O)C(=O)C3=C2C=CC=C3)C(=NO1)C,-2.72
5600,C-951,"2,2',3,4,4',5',6-heptachlorobiphenyl",InChI=1S/C12H3Cl7/c13-5-2-7(15)6(14)1-4(5)10-8(16)3-9(17)11(18)12(10)19/h1-3H,KQBFUDNJKCZEDQ-UHFFFAOYSA-N,ClC1=CC(=C(C=C1Cl)C2=C(Cl)C=C(Cl)C(=C2Cl)Cl)Cl,-7.92
5601,C-952,lorazepam,"InChI=1S/C15H10Cl2N2O2/c16-8-5-6-12-10(7-8)13(19-15(21)14(20)18-12)9-3-1-2-4-11(9)17/h1-7,15,21H,(H,18,20)",DIWRORZWFLOCLC-UHFFFAOYSA-N,OC1N=C(C2=CC=CC=C2Cl)C3=CC(=CC=C3NC1=O)Cl,-3.6
5602,C-953,"2,2',3,3',4,4',6-heptachlorobiphenyl",InChI=1S/C12H3Cl7/c13-5-2-1-4(9(16)10(5)17)8-6(14)3-7(15)11(18)12(8)19/h1-3H,TZMHVHLTPWKZCI-UHFFFAOYSA-N,ClC1=CC=C(C(=C1Cl)Cl)C2=C(Cl)C(=C(Cl)C=C2Cl)Cl,-8.3
5603,C-954,fenbuconazole,"InChI=1S/C19H17ClN4/c20-18-8-6-16(7-9-18)10-11-19(12-21,13-24-15-22-14-23-24)17-4-2-1-3-5-17/h1-9,14-15H,10-11,13H2",RQDJADAKIFFEKQ-UHFFFAOYSA-N,ClC1=CC=C(CCC(C[N]2C=NC=N2)(C#N)C3=CC=CC=C3)C=C1,-6.23
5604,C-955,n-(4-ethoxyphenyl)-4-nitrobenzenesulfonamide,"InChI=1S/C14H14N2O5S/c1-2-21-13-7-3-11(4-8-13)15-22(19,20)14-9-5-12(6-10-14)16(17)18/h3-10,15H,2H2,1H3",BUCSZBGRXQNNMQ-UHFFFAOYSA-N,CCOC1=CC=C(N[S](=O)(=O)C2=CC=C(C=C2)[N+]([O-])=O)C=C1,-4.72
5605,C-956,"2,2',3,4',5,5',6-heptachlorobiphenyl",InChI=1S/C12H3Cl7/c13-5-2-7(15)6(14)1-4(5)10-11(18)8(16)3-9(17)12(10)19/h1-3H,UDMZPLROONOSEF-UHFFFAOYSA-N,ClC1=CC(=C(C=C1Cl)C2=C(Cl)C(=CC(=C2Cl)Cl)Cl)Cl,-7.94
5606,C-957,"2,3,7,8-tetrachlorodibenzodioxin;  tcdd",InChI=1S/C12H4Cl4O2/c13-5-1-9-10(2-6(5)14)18-12-4-8(16)7(15)3-11(12)17-9/h1-4H,HGUFODBRKLSHSI-UHFFFAOYSA-N,ClC1=CC2=C(OC3=C(O2)C=C(Cl)C(=C3)Cl)C=C1Cl,-10.22
5607,C-958,pentoxazone,"InChI=1S/C17H17ClFNO4/c1-9(2)15-16(21)20(17(22)24-15)13-8-14(11(18)7-12(13)19)23-10-5-3-4-6-10/h7-8,10H,3-6H2,1-2H3",JZPKLLLUDLHCEL-UHFFFAOYSA-N,CC(C)=C1OC(=O)N(C1=O)C2=C(F)C=C(Cl)C(=C2)OC3CCCC3,-6.21
5608,C-959,3-(propanoyloxymethyl)phenytoin,"InChI=1S/C19H18N2O4/c1-2-16(22)25-13-21-17(23)19(20-18(21)24,14-9-5-3-6-10-14)15-11-7-4-8-12-15/h3-12H,2,13H2,1H3,(H,20,24)",FBQTWGHLMQUOQL-UHFFFAOYSA-N,CCC(=O)OCN1C(=O)NC(C1=O)(C2=CC=CC=C2)C3=CC=CC=C3,-4.91
5609,C-960,octachloronaphthalene,InChI=1S/C10Cl8/c11-3-1-2(5(13)9(17)7(3)15)6(14)10(18)8(16)4(1)12,RTNLUFLDZOAXIC-UHFFFAOYSA-N,ClC1=C(Cl)C2=C(C(=C1Cl)Cl)C(=C(Cl)C(=C2Cl)Cl)Cl,-9.7
5610,C-961,"2,2',3,4,5,5',6-heptachlorobiphenyl",InChI=1S/C12H3Cl7/c13-4-1-2-6(14)5(3-4)7-8(15)10(17)12(19)11(18)9(7)16/h1-3H,PYZHTHZEHQHHEN-UHFFFAOYSA-N,ClC1=CC=C(Cl)C(=C1)C2=C(Cl)C(=C(Cl)C(=C2Cl)Cl)Cl,-8.46