,ID,Name,InChI,InChIKey,SMILES,Solubility
2882,B-2883,metamitron,"InChI=1S/C10H10N4O/c1-7-12-13-9(10(15)14(7)11)8-5-3-2-4-6-8/h2-6H,11H2,1H3",VHCNQEUWZYOAEV-UHFFFAOYSA-N,CC1=NN=C(c2ccccc2)C(=O)N1N,-2.0506
2883,B-2884,"2,2',5,6'-tetrachlorobiphenyl",InChI=1S/C12H6Cl4/c13-7-4-5-9(14)8(6-7)12-10(15)2-1-3-11(12)16/h1-6H,SFTUSTXGTCCSHX-UHFFFAOYSA-N,Clc1ccc(Cl)c(c1)c2c(Cl)cccc2Cl,-6.7879
2884,B-2885,"1,1'-biphenyl, 2,3',4',6-tetrachloro-",InChI=1S/C12H6Cl4/c13-8-5-4-7(6-11(8)16)12-9(14)2-1-3-10(12)15/h1-6H,WYVBETQIUHPLFO-UHFFFAOYSA-N,Clc1ccc(cc1Cl)c2c(Cl)cccc2Cl,-7.0199
2885,B-2886,"1,1'-biphenyl, 2,2',3,6'-tetrachloro-",InChI=1S/C12H6Cl4/c13-8-4-2-1-3-7(8)11-9(14)5-6-10(15)12(11)16/h1-6H,VHGHHZZTMJLTJX-UHFFFAOYSA-N,Clc1ccc(Cl)c(c1Cl)c2ccccc2Cl,-6.3001
2886,B-2887,bupirimate,"InChI=1S/C13H24N4O3S/c1-6-8-9-11-10(3)15-13(14-7-2)16-12(11)20-21(18,19)17(4)5/h6-9H2,1-5H3,(H,14,15,16)",DSKJPMWIHSOYEA-UHFFFAOYSA-N,CCCCc1c(C)nc(NCC)nc1O[S](=O)(=O)N(C)C,-4.1579
2887,B-2888,"acetamide, n-(4-ethoxy-2-methylphenyl)-","InChI=1S/C11H15NO2/c1-4-14-10-5-6-11(8(2)7-10)12-9(3)13/h5-7H,4H2,1-3H3,(H,12,13)",GWGGYWFWMFMBKT-UHFFFAOYSA-N,CCOc1ccc(NC(C)=O)c(C)c1,-1.839
2888,B-2889,tricyclazole,"InChI=1S/C9H7N3S/c1-6-3-2-4-7-8(6)12-5-10-11-9(12)13-7/h2-5H,1H3",DQJCHOQLCLEDLL-UHFFFAOYSA-N,Cc1cccc2sc3nncn3c12,-2.0729
2889,B-2890,"benzaldehyde, 4-hydroxy-5-methoxy-2-methyl-","InChI=1S/C9H10O3/c1-6-3-8(11)9(12-2)4-7(6)5-10/h3-5,11H,1-2H3",MNMCHJAOXXQRID-UHFFFAOYSA-N,COc1cc(C=O)c(C)cc1O,-2.7435
2890,B-2891,nadolol,"InChI=1S/C17H27NO4/c1-17(2,3)18-9-12(19)10-22-16-6-4-5-11-7-14(20)15(21)8-13(11)16/h4-6,12,14-15,18-21H,7-10H2,1-3H3/t12?,14-,15+/m1/s1",VWPOSFSPZNDTMJ-UCWKZMIHSA-N,CC(C)(C)NCC(O)COc1cccc2C[C@@H](O)[C@@H](O)Cc12,-1.5699
2891,B-2892,diltiazem,"InChI=1S/C22H26N2O4S/c1-15(25)28-20-21(16-9-11-17(27-4)12-10-16)29-19-8-6-5-7-18(19)24(22(20)26)14-13-23(2)3/h5-12,20-21H,13-14H2,1-4H3/t20-,21+/m1/s1",HSUGRBWQSSZJOP-RTWAWAEBSA-N,COc1ccc(cc1)[C@@H]2Sc3ccccc3N(CCN(C)C)C(=O)[C@@H]2OC(C)=O,-2.9501
2892,B-2893,isazofos,"InChI=1S/C9H17ClN3O3PS/c1-5-14-17(18,15-6-2)16-9-11-8(10)13(12-9)7(3)4/h7H,5-6H2,1-4H3",XRHGWAGWAHHFLF-UHFFFAOYSA-N,CCO[P](=S)(OCC)Oc1nn(C(C)C)c(Cl)n1,-3.6577
2893,B-2894,bifenox,"InChI=1S/C14H9Cl2NO5/c1-21-14(18)10-7-9(3-4-12(10)17(19)20)22-13-5-2-8(15)6-11(13)16/h2-7H,1H3",SUSRORUBZHMPCO-UHFFFAOYSA-N,COC(=O)c1cc(Oc2ccc(Cl)cc2Cl)ccc1[N+]([O-])=O,-5.9343
2894,B-2895,kinoprene,"InChI=1S/C18H28O2/c1-6-13-20-18(19)14-17(5)12-8-11-16(4)10-7-9-15(2)3/h1,8,12,14-16H,7,9-11,13H2,2-5H3/b12-8+,17-14+",FZRBKIRIBLNOAM-WHVZTFIZSA-N,CC(C)CCCC(C)C\C=C\C(C)=C\C(=O)OCC#C,-4.7239
2895,B-2896,daimuron,"InChI=1S/C17H20N2O/c1-13-9-11-15(12-10-13)18-16(20)19-17(2,3)14-7-5-4-6-8-14/h4-12H,1-3H3,(H2,18,19,20)",NNYRZQHKCHEXSD-UHFFFAOYSA-N,Cc1ccc(NC(=O)NC(C)(C)c2ccccc2)cc1,-5.3495
2896,B-2897,methyldymron,"InChI=1S/C17H20N2O/c1-17(2,14-10-6-4-7-11-14)18-16(20)19(3)15-12-8-5-9-13-15/h4-13H,1-3H3,(H,18,20)",FMINYZXVCTYSNY-UHFFFAOYSA-N,CN(C(=O)NC(C)(C)c1ccccc1)c2ccccc2,-3.3495
2897,B-2898,"2,2',3,3',4,4',5,6'-octachlorobiphenyl",InChI=1S/C12H2Cl8/c13-4-2-6(15)9(17)11(19)7(4)3-1-5(14)10(18)12(20)8(3)16/h1-2H,BQFCCUSDZLKBJG-UHFFFAOYSA-N,Clc1cc(Cl)c(c(Cl)c1Cl)c2cc(Cl)c(Cl)c(Cl)c2Cl,-9.42
2898,B-2899,oxyfluorfen,"InChI=1S/C15H11ClF3NO4/c1-2-23-14-8-10(4-5-12(14)20(21)22)24-13-6-3-9(7-11(13)16)15(17,18)19/h3-8H,2H2,1H3",OQMBBFQZGJFLBU-UHFFFAOYSA-N,CCOc1cc(Oc2ccc(cc2Cl)C(F)(F)F)ccc1[N+]([O-])=O,-6.4939
2899,B-2900,"2-propanol, 1,3-dipropoxy-","InChI=1S/C9H20O3/c1-3-5-11-7-9(10)8-12-6-4-2/h9-10H,3-8H2,1-2H3",KLDDZFJSRPXUIY-UHFFFAOYSA-N,CCCOCC(O)COCCC,-0.3431
2900,B-2901,triadimefon,"InChI=1S/C14H16ClN3O2/c1-14(2,3)12(19)13(18-9-16-8-17-18)20-11-6-4-10(15)5-7-11/h4-9,13H,1-3H3",WURBVZBTWMNKQT-UHFFFAOYSA-N,CC(C)(C)C(=O)C(Oc1ccc(Cl)cc1)n2cncn2,-3.6137
2901,B-2902,"propanamide, 2-oxo-n-phenyl-","InChI=1S/C9H9NO2/c1-7(11)9(12)10-8-5-3-2-4-6-8/h2-6H,1H3,(H,10,12)",VOKLUGVCKPXDJE-UHFFFAOYSA-N,CC(=O)C(=O)Nc1ccccc1,-1.3676
2902,B-2903,"valeric acid, 5-(benzenesulfonyl-methyl-amino)-","InChI=1S/C12H17NO4S/c1-13(10-6-5-9-12(14)15)18(16,17)11-7-3-2-4-8-11/h2-4,7-8H,5-6,9-10H2,1H3,(H,14,15)",WFADZGFZNJEISA-UHFFFAOYSA-N,CN(CCCCC(O)=O)[S](=O)(=O)c1ccccc1,-1.5585
2903,B-2904,"3-pyridinecarboxylic acid, pentyl ester","InChI=1S/C11H15NO2/c1-2-3-4-8-14-11(13)10-6-5-7-12-9-10/h5-7,9H,2-4,8H2,1H3",SYIRQWIOOCVBTC-UHFFFAOYSA-N,CCCCCOC(=O)c1cccnc1,-2.3776
2904,B-2905,"phenol, 4-(2-aminoethyl)-2-nitro-","InChI=1S/C8H10N2O3/c9-4-3-6-1-2-8(11)7(5-6)10(12)13/h1-2,5,11H,3-4,9H2",IUCYCHQMRZWPGT-UHFFFAOYSA-N,NCCc1ccc(O)c(c1)[N+]([O-])=O,-1.3399
2905,B-2906,"2,4(1h,3h)-pteridinedione, 1,6,7-trimethyl-","InChI=1S/C9H10N4O2/c1-4-5(2)11-7-6(10-4)8(14)12-9(15)13(7)3/h1-3H3,(H,12,14,15)",XCOSZAUDQCILGD-UHFFFAOYSA-N,CN1C(=O)NC(=O)c2nc(C)c(C)nc12,-2.1129
2906,B-2907,vinclozolin,"InChI=1S/C12H9Cl2NO3/c1-3-12(2)10(16)15(11(17)18-12)9-5-7(13)4-8(14)6-9/h3-6H,1H2,2H3",FSCWZHGZWWDELK-UHFFFAOYSA-N,CC1(OC(=O)N(C1=O)c2cc(Cl)cc(Cl)c2)C=C,-5.0416
2907,B-2908,ipt (isoprothiolane),"InChI=1S/C12H18O4S2/c1-7(2)15-10(13)9(11(14)16-8(3)4)12-17-5-6-18-12/h7-8H,5-6H2,1-4H3",UFHLMYOGRXOCSL-UHFFFAOYSA-N,CC(C)OC(=O)C(C(=O)OC(C)C)=C1SCCS1,-3.7306
2908,B-2909,dimethachlor,"InChI=1S/C13H18ClNO2/c1-10-5-4-6-11(2)13(10)15(7-8-17-3)12(16)9-14/h4-6H,7-9H2,1-3H3",SCCDDNKJYDZXMM-UHFFFAOYSA-N,COCCN(C(=O)CCl)c1c(C)cccc1C,-2.0461
2909,B-2910,acifluorfen,"InChI=1S/C14H7ClF3NO5/c15-10-5-7(14(16,17)18)1-4-12(10)24-8-2-3-11(19(22)23)9(6-8)13(20)21/h1-6H,(H,20,21)",NUFNQYOELLVIPL-UHFFFAOYSA-N,OC(=O)c1cc(Oc2ccc(cc2Cl)C(F)(F)F)ccc1[N+]([O-])=O,-3.4791
2910,B-2911,terfenadine,"InChI=1S/C32H41NO2/c1-31(2,3)26-18-16-25(17-19-26)30(34)15-10-22-33-23-20-29(21-24-33)32(35,27-11-6-4-7-12-27)28-13-8-5-9-14-28/h4-9,11-14,16-19,29-30,34-35H,10,15,20-24H2,1-3H3",GUGOEEXESWIERI-UHFFFAOYSA-N,CC(C)(C)c1ccc(cc1)C(O)CCCN2CCC(CC2)C(O)(c3ccccc3)c4ccccc4,-6.69
2911,B-2912,azacyclohexadecan-2-one,"InChI=1S/C15H29NO/c17-15-13-11-9-7-5-3-1-2-4-6-8-10-12-14-16-15/h1-14H2,(H,16,17)",NIMGTMNBWOVIHM-UHFFFAOYSA-N,O=C1CCCCCCCCCCCCCCN1,-2.8739999999999997
2912,B-2913,Vx agent,"InChI=1S/C11H26NO2PS/c1-7-14-15(6,13)16-9-8-12(10(2)3)11(4)5/h10-11H,7-9H2,1-6H3",JJIUCEJQJXNMHV-UHFFFAOYSA-N,CCO[P](C)(=O)SCCN(C(C)C)C(C)C,-0.95
2913,B-2914,"hexanamide, n,n'-1,2-ethanediylbis-","InChI=1S/C14H28N2O2/c1-3-5-7-9-13(17)15-11-12-16-14(18)10-8-6-4-2/h3-12H2,1-2H3,(H,15,17)(H,16,18)",JUFADMDNFLYBPC-UHFFFAOYSA-N,CCCCCC(=O)NCCNC(=O)CCCCC,-3.1079
2914,B-2915,"benzeneacetic acid, .alpha.-(acetyloxy)-, (r)-","InChI=1S/C10H10O4/c1-7(11)14-9(10(12)13)8-5-3-2-4-6-8/h2-6,9H,1H3,(H,12,13)/t9-/m1/s1",OBCUSTCTKLTMBX-SECBINFHSA-N,CC(=O)O[C@@H](C(O)=O)c1ccccc1,-1.2313
2915,B-2916,"galatitol, 2,3:4,5-dianhydro-1,6-dideoxy-","InChI=1S/C6H10O2/c1-3-5(7-3)6-4(2)8-6/h3-6H,1-2H3",SINVKWSLMGHBSX-UHFFFAOYSA-N,CC1OC1C2OC2C,-0.0575
2916,B-2917,"1h-indole-2,3-dicarboxamide, 1-methyl-","InChI=1S/C11H11N3O2/c1-14-7-5-3-2-4-6(7)8(10(12)15)9(14)11(13)16/h2-5H,1H3,(H2,12,15)(H2,13,16)",VUUWSWSYQZKQQJ-UHFFFAOYSA-N,Cn1c2ccccc2c(C(N)=O)c1C(N)=O,-1.8184
2917,B-2918,"1,3-benzenedicarboxylic acid, 4-sulfo-","InChI=1S/C8H6O7S/c9-7(10)4-1-2-6(16(13,14)15)5(3-4)8(11)12/h1-3H,(H,9,10)(H,11,12)(H,13,14,15)",JSYUFUJLFRBMEN-UHFFFAOYSA-N,OC(=O)c1ccc(c(c1)C(O)=O)[S](O)(=O)=O,0.6087
2918,B-2919,"1h-pyrazol-5-amine, 3,4-dimethyl-1-phenyl-","InChI=1S/C11H13N3/c1-8-9(2)13-14(11(8)12)10-6-4-3-5-7-10/h3-7H,12H2,1-2H3",PUAVVYSZRNWCGP-UHFFFAOYSA-N,Cc1nn(c2ccccc2)c(N)c1C,-1.6704
2919,B-2920,metolachlor,"InChI=1S/C15H22ClNO2/c1-5-13-8-6-7-11(2)15(13)17(14(18)9-16)12(3)10-19-4/h6-8,12H,5,9-10H2,1-4H3",WVQBLGZPHOPPFO-UHFFFAOYSA-N,CCc1cccc(C)c1N(C(C)COC)C(=O)CCl,-2.7287
2920,B-2921,hexazinone,"InChI=1S/C12H20N4O2/c1-14(2)10-13-11(17)16(12(18)15(10)3)9-7-5-4-6-8-9/h9H,4-8H2,1-3H3",CAWXEEYDBZRFPE-UHFFFAOYSA-N,CN(C)C1=NC(=O)N(C2CCCCC2)C(=O)N1C,-0.8834
2921,B-2922,buminafos,"InChI=1S/C18H38NO3P/c1-4-7-15-19-18(13-11-10-12-14-18)23(20,21-16-8-5-2)22-17-9-6-3/h19H,4-17H2,1-3H3",NMBXMBCZBXUXAM-UHFFFAOYSA-N,CCCCNC1(CCCCC1)[P](=O)(OCCCC)OCCCC,-3.3105
2922,B-2923,buthiobate,"InChI=1S/C21H28N2S2/c1-5-6-14-24-20(23-19-8-7-13-22-15-19)25-16-17-9-11-18(12-10-17)21(2,3)4/h7-13,15H,5-6,14,16H2,1-4H3",ZZVVDIVWGXTDRQ-UHFFFAOYSA-N,CCCCSC(SCc1ccc(cc1)C(C)(C)C)=Nc2cccnc2,-5.5712
2923,B-2924,diclofop-methyl,"InChI=1S/C16H14Cl2O4/c1-10(16(19)20-2)21-12-4-6-13(7-5-12)22-15-8-3-11(17)9-14(15)18/h3-10H,1-2H3",BACHBFVBHLGWSL-UHFFFAOYSA-N,COC(=O)C(C)Oc1ccc(Oc2ccc(Cl)cc2Cl)cc1,-5.6299
2924,B-2925,"3-(5-Tert-butyl-1,3,4-thiadiazol-2-yl)-1-(2,2-dimethoxyethyl)-1-methylurea","InChI=1S/C12H22N4O3S/c1-12(2,3)9-14-15-10(20-9)13-11(17)16(4)7-8(18-5)19-6/h8H,7H2,1-6H3,(H,13,15,17)",JEBBYIJCXLFPCX-UHFFFAOYSA-N,COC(CN(C)C(=O)Nc1sc(nn1)C(C)(C)C)OC,-1.8678
2925,B-2926,cimetidine,"InChI=1S/C10H16N6S/c1-8-9(16-7-15-8)5-17-4-3-13-10(12-2)14-6-11/h7H,3-5H2,1-2H3,(H,15,16)(H2,12,13,14)",AQIXAKUUQRKLND-UHFFFAOYSA-N,CN=C(NCCSCc1nc[nH]c1C)NC#N,-1.4298
2926,B-2927,cloethocarb,"InChI=1S/C11H14ClNO4/c1-13-11(14)17-9-6-4-3-5-8(9)16-10(7-12)15-2/h3-6,10H,7H2,1-2H3,(H,13,14)",PITWUHDDNUVBPT-UHFFFAOYSA-N,CNC(=O)Oc1ccccc1OC(CCl)OC,-2.3005
2927,B-2928,milbemectin a3,"InChI=1S/C31H44O7/c1-18-7-6-8-23-17-35-28-27(32)21(4)14-26(31(23,28)34)29(33)36-25-15-24(10-9-19(2)13-18)38-30(16-25)12-11-20(3)22(5)37-30/h6-9,14,18,20,22,24-28,32,34H,10-13,15-17H2,1-5H3/b7-6+,19-9+,23-8+/t18-,20-,22?,24?,25-,26-,27+,28+,30-,31+/m0/s1",ZLBGSRMUSVULIE-SJRQICMCSA-N,C[C@@H]/1CC(=C/CC2C[C@@H](C[C@]3(CC[C@H](C)C(C)O3)O2)OC(=O)[C@@H]4C=C(C)[C@@H](O)[C@H]5OCC(=C\C=C1)/[C@@]45O)/C,-5.7787
2928,B-2929,milbemectin a4,"InChI=1S/C32H46O7/c1-6-27-21(4)12-13-31(39-27)17-25-16-24(38-31)11-10-20(3)14-19(2)8-7-9-23-18-36-29-28(33)22(5)15-26(30(34)37-25)32(23,29)35/h7-10,15,19,21,24-29,33,35H,6,11-14,16-18H2,1-5H3/b8-7+,20-10+,23-9+/t19?,21?,24-,25+,26+,27?,28-,29-,31-,32-/m1/s1",VOZIAWLUULBIPN-DFYAAVTESA-N,CCC1O[C@]2(CCC1C)C[C@@H]3C[C@@H](C\C=C(/C)CC(C)/C=C/C=C/4CO[C@@H]5[C@H](O)C(=C[C@@H](C(=O)O3)[C@]45O)C)O2,-4.8772
2929,B-2930,thidiazuron,"InChI=1S/C9H8N4OS/c14-9(12-8-6-10-13-15-8)11-7-4-2-1-3-5-7/h1-6H,(H2,11,12,14)",HFCYZXMHUIHAQI-UHFFFAOYSA-N,O=C(Nc1snnc1)Nc2ccccc2,-4.0419
2930,B-2931,"2,4-dichlorodiphenyl ether",InChI=1S/C12H8Cl2O/c13-9-6-7-12(11(14)8-9)15-10-4-2-1-3-5-10/h1-8H,KXIPYLZZJZMMPD-UHFFFAOYSA-N,Clc1ccc(Oc2ccccc2)c(Cl)c1,-4.6304
2931,B-2932,"2,2',3,4',5,5'-hexachlorobiphenyl",InChI=1S/C12H4Cl6/c13-5-1-7(12(18)11(17)2-5)6-3-9(15)10(16)4-8(6)14/h1-4H,BQHCQAQLTCQFJZ-UHFFFAOYSA-N,Clc1cc(Cl)c(Cl)c(c1)c2cc(Cl)c(Cl)cc2Cl,-8.5801
2932,B-2933,pipemidic acid,"InChI=1S/C14H17N5O3/c1-2-18-8-10(13(21)22)11(20)9-7-16-14(17-12(9)18)19-5-3-15-4-6-19/h7-8,15H,2-6H2,1H3,(H,21,22)",JOHZPMXAZQZXHR-UHFFFAOYSA-N,CCN1C=C(C(O)=O)C(=O)c2cnc(nc12)N3CCNCC3,-2.9739999999999998
2933,B-2934,4(3h)-pyrimidone,"InChI=1S/C4H4N2O/c7-4-1-2-5-3-6-4/h2-3H,1H2",TZYQTWHRLVDYPL-UHFFFAOYSA-N,O=C1CC=NC=N1,0.586
2934,B-2935,1-(3-Chlorophthalimido)cyclohexanecarboxamide,"InChI=1S/C15H15ClN2O3/c16-10-6-4-5-9-11(10)13(20)18(12(9)19)15(14(17)21)7-2-1-3-8-15/h4-6H,1-3,7-8H2,(H2,17,21)",PSAVXKLISNEJJE-UHFFFAOYSA-N,NC(=O)C1(CCCCC1)N2C(=O)c3cccc(Cl)c3C2=O,-4.0097
2935,B-2936,cyclohexylmercapto-acetic acid,"InChI=1S/C8H14O2S/c9-8(10)6-11-7-4-2-1-3-5-7/h7H,1-6H2,(H,9,10)",FBBVJXMXGVHARA-UHFFFAOYSA-N,OC(=O)CSC1CCCCC1,-1.3381
2936,B-2937,"5-ethyl-5-methyl-2,4-oxazolidinedione","InChI=1S/C6H9NO3/c1-3-6(2)4(8)7-5(9)10-6/h3H2,1-2H3,(H,7,8,9)",MGHNWMRNFGYJKE-UHFFFAOYSA-N,CCC1(C)OC(=O)NC1=O,0.0203
2937,B-2938,naproanilide,"InChI=1S/C19H17NO2/c1-14(19(21)20-17-9-3-2-4-10-17)22-18-12-11-15-7-5-6-8-16(15)13-18/h2-14H,1H3,(H,20,21)",LVKTWOXHRYGDMM-UHFFFAOYSA-N,CC(Oc1ccc2ccccc2c1)C(=O)Nc3ccccc3,-5.5894
2938,B-2939,permethrin,"InChI=1S/C21H20Cl2O3/c1-21(2)17(12-18(22)23)19(21)20(24)25-13-14-7-6-10-16(11-14)26-15-8-4-3-5-9-15/h3-12,17,19H,13H2,1-2H3/t17-,19-/m0/s1",RLLPVAHGXHCWKJ-HKUYNNGSSA-N,CC1(C)[C@@H](C=C(Cl)Cl)[C@H]1C(=O)OCc2cccc(Oc3ccccc3)c2,-7.8144
2939,B-2940,"2,2',3,4,5-pentachlorobiphenyl",InChI=1S/C12H5Cl5/c13-8-3-1-2-6(10(8)15)7-4-5-9(14)12(17)11(7)16/h1-5H,AUGNBQPSMWGAJE-UHFFFAOYSA-N,Clc1cccc(c1Cl)c2ccc(Cl)c(Cl)c2Cl,-7.0502
2940,B-2941,"2,2',3,5,5',6-hexachlorobiphenyl",InChI=1S/C12H4Cl6/c13-5-1-2-7(14)6(3-5)10-11(17)8(15)4-9(16)12(10)18/h1-4H,UHCLFIWDCYOTOL-UHFFFAOYSA-N,Clc1ccc(Cl)c(c1)c2c(Cl)c(Cl)cc(Cl)c2Cl,-7.4254
2941,B-2942,"2,2',3,3',5,6,6'-heptachlorobiphenyl",InChI=1S/C12H3Cl7/c13-4-1-2-5(14)10(17)8(4)9-11(18)6(15)3-7(16)12(9)19/h1-3H,XYHVYEUZLSYHDP-UHFFFAOYSA-N,Clc1ccc(Cl)c(c1Cl)c2c(Cl)c(Cl)cc(Cl)c2Cl,-7.94
2942,B-2943,"1,1'-biphenyl, 2,2',3,3',4,6,6'-heptachloro-",InChI=1S/C12H3Cl7/c13-4-1-2-5(14)10(17)8(4)9-6(15)3-7(16)11(18)12(9)19/h1-3H,HGMYRFJAJNYBRX-UHFFFAOYSA-N,Clc1ccc(Cl)c(c1Cl)c2c(Cl)cc(Cl)c(Cl)c2Cl,-8.1501
2943,B-2944,"2,2',3,3',5,5',6-heptachlorobiphenyl",InChI=1S/C12H3Cl7/c13-4-1-5(10(17)6(14)2-4)9-11(18)7(15)3-8(16)12(9)19/h1-3H,WCIBKXHMIXUQHK-UHFFFAOYSA-N,Clc1cc(Cl)c(Cl)c(c1)c2c(Cl)c(Cl)cc(Cl)c2Cl,-8.5901
2944,B-2945,"2,2',3,4',5,5',6-heptachlorobiphenyl",InChI=1S/C12H3Cl7/c13-5-2-7(15)6(14)1-4(5)10-11(18)8(16)3-9(17)12(10)19/h1-3H,UDMZPLROONOSEF-UHFFFAOYSA-N,Clc1cc(Cl)c(cc1Cl)c2c(Cl)c(Cl)cc(Cl)c2Cl,-7.9428
2945,B-2946,"2,2',3,4,4',5',6-heptachlorobiphenyl",InChI=1S/C12H3Cl7/c13-5-2-7(15)6(14)1-4(5)10-8(16)3-9(17)11(18)12(10)19/h1-3H,KQBFUDNJKCZEDQ-UHFFFAOYSA-N,Clc1cc(Cl)c(cc1Cl)c2c(Cl)cc(Cl)c(Cl)c2Cl,-7.9068
2946,B-2947,"1,1'-biphenyl, 2,2',3,3',4,5',6'-heptachloro-",InChI=1S/C12H3Cl7/c13-5-2-1-4(9(16)12(5)19)8-10(17)6(14)3-7(15)11(8)18/h1-3H,CXOYNJAHPUASHN-UHFFFAOYSA-N,Clc1ccc(c(Cl)c1Cl)c2c(Cl)c(Cl)cc(Cl)c2Cl,-8.42
2947,B-2948,"2,2',3,3',4,4',6-heptachlorobiphenyl",InChI=1S/C12H3Cl7/c13-5-2-1-4(9(16)10(5)17)8-6(14)3-7(15)11(18)12(8)19/h1-3H,TZMHVHLTPWKZCI-UHFFFAOYSA-N,Clc1ccc(c(Cl)c1Cl)c2c(Cl)cc(Cl)c(Cl)c2Cl,-8.2605
2948,B-2949,"2,3',4,4',5,5'-hexachlorobiphenyl",InChI=1S/C12H4Cl6/c13-7-4-9(15)8(14)3-6(7)5-1-10(16)12(18)11(17)2-5/h1-4H,AZXHAWRMEPZSSV-UHFFFAOYSA-N,Clc1cc(Cl)c(cc1Cl)c2cc(Cl)c(Cl)c(Cl)c2,-8.21
2949,B-2950,"1,1'-biphenyl, 2,2',3,3',4,5,6,6'-octachloro-",InChI=1S/C12H2Cl8/c13-3-1-2-4(14)7(15)5(3)6-8(16)10(18)12(20)11(19)9(6)17/h1-2H,HHXNVASVVVNNDG-UHFFFAOYSA-N,Clc1ccc(Cl)c(c1Cl)c2c(Cl)c(Cl)c(Cl)c(Cl)c2Cl,-9.1
2950,B-2951,"2,2',3,3',4,5,5'-heptachlorobiphenyl",InChI=1S/C12H3Cl7/c13-4-1-5(9(16)7(14)2-4)6-3-8(15)11(18)12(19)10(6)17/h1-3H,HOPMUCXYRNOABF-UHFFFAOYSA-N,Clc1cc(Cl)c(Cl)c(c1)c2cc(Cl)c(Cl)c(Cl)c2Cl,-9.1
2951,B-2952,"2,2',3,3',4,5,5',6'-octachlorobiphenyl",InChI=1S/C12H2Cl8/c13-4-1-3(8(16)12(20)11(4)19)7-9(17)5(14)2-6(15)10(7)18/h1-2H,HJBYDWKNARZTMJ-UHFFFAOYSA-N,Clc1cc(c(Cl)c(Cl)c1Cl)c2c(Cl)c(Cl)cc(Cl)c2Cl,-9.29
2952,B-2953,"1,1'-biphenyl, 2,2',3,4,4',5,5',6-octachloro-",InChI=1S/C12H2Cl8/c13-4-2-6(15)5(14)1-3(4)7-8(16)10(18)12(20)11(19)9(7)17/h1-2H,DCPDZFRGNJDWPP-UHFFFAOYSA-N,Clc1cc(Cl)c(cc1Cl)c2c(Cl)c(Cl)c(Cl)c(Cl)c2Cl,-9.5
2953,B-2954,"2,3,4,5,6,2',3',5',6'-pcb",InChI=1S/C12HCl9/c13-2-1-3(14)7(16)4(6(2)15)5-8(17)10(19)12(21)11(20)9(5)18/h1H,XIFFTDRFWYFAPO-UHFFFAOYSA-N,Clc1cc(Cl)c(Cl)c(c1Cl)c2c(Cl)c(Cl)c(Cl)c(Cl)c2Cl,-10.4115
2954,B-2955,"2,2',3,3',4,4',5,6-octachlorobiphenyl",InChI=1S/C12H2Cl8/c13-4-2-1-3(6(14)7(4)15)5-8(16)10(18)12(20)11(19)9(5)17/h1-2H,JAHJITLFJSDRCG-UHFFFAOYSA-N,Clc1ccc(c(Cl)c1Cl)c2c(Cl)c(Cl)c(Cl)c(Cl)c2Cl,-9.29
2955,B-2956,"1,1'-biphenyl, 2,2',3,3',4,4',5,6,6'-nonachloro-",InChI=1S/C12HCl9/c13-2-1-3(14)6(15)7(16)4(2)5-8(17)10(19)12(21)11(20)9(5)18/h1H,YGDPIDTZOQGPAX-UHFFFAOYSA-N,Clc1cc(Cl)c(c(Cl)c1Cl)c2c(Cl)c(Cl)c(Cl)c(Cl)c2Cl,-10.1035
2956,B-2957,"2,2',3,3',5,6-hexachlorobiphenyl",InChI=1S/C12H4Cl6/c13-6-3-1-2-5(10(6)16)9-11(17)7(14)4-8(15)12(9)18/h1-4H,RVWLHPJFOKUPNM-UHFFFAOYSA-N,Clc1cccc(c1Cl)c2c(Cl)c(Cl)cc(Cl)c2Cl,-8.6036
2957,B-2958,"2,2',3,4,5,5'-hexachlorobiphenyl",InChI=1S/C12H4Cl6/c13-5-1-2-8(14)6(3-5)7-4-9(15)11(17)12(18)10(7)16/h1-4H,UCLKLGIYGBLTSM-UHFFFAOYSA-N,Clc1ccc(Cl)c(c1)c2cc(Cl)c(Cl)c(Cl)c2Cl,-7.6794
2958,B-2959,"2,2',3,4,5,5',6-heptachlorobiphenyl",InChI=1S/C12H3Cl7/c13-4-1-2-6(14)5(3-4)7-8(15)10(17)12(19)11(18)9(7)16/h1-3H,PYZHTHZEHQHHEN-UHFFFAOYSA-N,Clc1ccc(Cl)c(c1)c2c(Cl)c(Cl)c(Cl)c(Cl)c2Cl,-7.8598
2959,B-2960,flamprop-isopropyl,"InChI=1S/C19H19ClFNO3/c1-12(2)25-19(24)13(3)22(15-9-10-17(21)16(20)11-15)18(23)14-7-5-4-6-8-14/h4-13H,1-3H3",IKVXBIIHQGXQRQ-UHFFFAOYSA-N,CC(C)OC(=O)C(C)N(C(=O)c1ccccc1)c2ccc(F)c(Cl)c2,-4.3056
2960,B-2961,flamprop-methyl,"InChI=1S/C17H15ClFNO3/c1-11(17(22)23-2)20(13-8-9-15(19)14(18)10-13)16(21)12-6-4-3-5-7-12/h3-11H,1-2H3",RBNIGDFIUWJJEV-UHFFFAOYSA-N,COC(=O)C(C)N(C(=O)c1ccccc1)c2ccc(F)c(Cl)c2,-3.9819999999999998
2961,B-2962,prosulfocarb,"InChI=1S/C14H21NOS/c1-3-10-15(11-4-2)14(16)17-12-13-8-6-5-7-9-13/h5-9H,3-4,10-12H2,1-2H3",NQLVQOSNDJXLKG-UHFFFAOYSA-N,CCCN(CCC)C(=O)SCc1ccccc1,-4.2798
2962,B-2963,deltamethrin,"InChI=1S/C22H19Br2NO3/c1-22(2)17(12-19(23)24)20(22)21(26)28-18(13-25)14-7-6-10-16(11-14)27-15-8-4-3-5-9-15/h3-12,17-18,20H,1-2H3/t17-,18+,20-/m0/s1",OWZREIFADZCYQD-NSHGMRRFSA-N,CC1(C)[C@@H](C=C(Br)Br)[C@H]1C(=O)O[C@H](C#N)c2cccc(Oc3ccccc3)c2,-8.4024
2963,B-2964,"hydrazinecarboxamide, 1-(2-hydroxyhexyl)-2-[(5-n","InChI=1S/C12H18N4O5/c1-2-3-4-9(17)8-15(12(13)18)14-7-10-5-6-11(21-10)16(19)20/h5-7,9,17H,2-4,8H2,1H3,(H2,13,18)/b14-7-",FRLFOQIGGOTYHP-AUWJEWJLSA-N,CCCCC(O)CN(\N=C/c1oc(cc1)[N+]([O-])=O)C(N)=O,-3.5716
2964,B-2965,pyrimethanil,"InChI=1S/C12H13N3/c1-9-8-10(2)14-12(13-9)15-11-6-4-3-5-7-11/h3-8H,1-2H3,(H,13,14,15)",ZLIBICFPKPWGIZ-UHFFFAOYSA-N,Cc1cc(C)nc(Nc2ccccc2)n1,-3.2166
2965,B-2966,aroclor 1242,InChI=1S/C12H6Cl4/c13-7-1-3-9(11(15)5-7)10-4-2-8(14)6-12(10)16/h1-6H,QORAVNMWUNPXAO-UHFFFAOYSA-N,Clc1ccc(c(Cl)c1)c2ccc(Cl)cc2Cl,-6.0229
2966,B-2967,"1,2,3,5-tetrachloronaphthalene",InChI=1S/C10H4Cl4/c11-7-3-1-2-5-6(7)4-8(12)10(14)9(5)13/h1-4H,HJJKSUVYCQAMBG-UHFFFAOYSA-N,Clc1cccc2c(Cl)c(Cl)c(Cl)cc12,-7.8566
2967,B-2968,"1,3,5,7-tetrachloronaphthalene",InChI=1S/C10H4Cl4/c11-5-1-7-8(10(14)3-5)2-6(12)4-9(7)13/h1-4H,OTTCXKPQKOLSJN-UHFFFAOYSA-N,Clc1cc(Cl)c2cc(Cl)cc(Cl)c2c1,-7.8228
2968,B-2969,ibuproxam,"InChI=1S/C13H19NO2/c1-9(2)8-11-4-6-12(7-5-11)10(3)13(15)14-16/h4-7,9-10,16H,8H2,1-3H3,(H,14,15)",BYPIURIATSUHDW-UHFFFAOYSA-N,CC(C)Cc1ccc(cc1)C(C)C(=O)NO,-3.0439999999999996
2969,B-2970,1h-imidazole-2-sulfonic acid,"InChI=1S/C3H4N2O3S/c6-9(7,8)3-4-1-2-5-3/h1-2H,(H,4,5)(H,6,7,8)",LYLDIIUFTYRPPK-UHFFFAOYSA-N,O[S](=O)(=O)c1[nH]ccn1,-0.0738
2970,B-2971,mefluidide,"InChI=1S/C11H13F3N2O3S/c1-6-4-7(2)10(5-9(6)15-8(3)17)16-20(18,19)11(12,13)14/h4-5,16H,1-3H3,(H,15,17)",OKIBNKKYNPBDRS-UHFFFAOYSA-N,CC(=O)Nc1cc(N[S](=O)(=O)C(F)(F)F)c(C)cc1C,-3.2365
2971,B-2972,"24nh2pyrimidine,5(35-meo-4-oetome)benzyl","InChI=1S/C16H22N4O4/c1-21-4-5-24-14-12(22-2)7-10(8-13(14)23-3)6-11-9-19-16(18)20-15(11)17/h7-9H,4-6H2,1-3H3,(H4,17,18,19,20)",WSWJIZXMAUYHOE-UHFFFAOYSA-N,COCCOc1c(OC)cc(Cc2cnc(N)nc2N)cc1OC,-2.101
2972,B-2973,"1(3h)-isobenzofuranone, 6-iodo-","InChI=1S/C8H5IO2/c9-6-2-1-5-4-11-8(10)7(5)3-6/h1-3H,4H2",GDWUNKJJSAKJSC-UHFFFAOYSA-N,Ic1ccc2COC(=O)c2c1,-3.2109
2973,B-2974,"2-butenoic acid, 2-chloro-, (z)-","InChI=1S/C4H5ClO2/c1-2-3(5)4(6)7/h2H,1H3,(H,6,7)/b3-2-",WMDBQMYVAIBBDH-IHWYPQMZSA-N,C\C=C(/Cl)C(O)=O,0.9189
2974,B-2975,cefaclor (panoral),"InChI=1S/C15H14ClN3O4S/c16-8-6-24-14-10(13(21)19(14)11(8)15(22)23)18-12(20)9(17)7-4-2-1-3-5-7/h1-5,9-10,14H,6,17H2,(H,18,20)(H,22,23)/t9-,10-,14-/m1/s1",QYIYFLOTGYLRGG-GPCCPHFNSA-N,N[C@@H](C(=O)N[C@H]1[C@H]2SCC(=C(N2C1=O)C(O)=O)Cl)c3ccccc3,-1.5656
2975,B-2976,"benzamide, n-(2-amino-1,1-dimethyl-2-oxoethyl)-","InChI=1S/C11H14N2O2/c1-11(2,10(12)15)13-9(14)8-6-4-3-5-7-8/h3-7H,1-2H3,(H2,12,15)(H,13,14)",GNFOQSWHSQTXHR-UHFFFAOYSA-N,CC(C)(NC(=O)c1ccccc1)C(N)=O,-1.6154
2976,B-2977,"1,2,3-trichloro-4-methoxybenzene","InChI=1S/C7H5Cl3O/c1-11-5-3-2-4(8)6(9)7(5)10/h2-3H,1H3",FRQUNVLMWIYOLV-UHFFFAOYSA-N,COc1ccc(Cl)c(Cl)c1Cl,-4.2918
2977,B-2978,empenthrin,"InChI=1S/C18H26O2/c1-8-10-13(5)15(9-2)20-17(19)16-14(11-12(3)4)18(16,6)7/h2,10-11,14-16H,8H2,1,3-7H3/b13-10+",YUGWDVYLFSETPE-JLHYYAGUSA-N,CC\C=C(/C)C(OC(=O)C1C(C=C(C)C)C1(C)C)C#C,-6.3931
2978,B-2979,"pentanamide, n,n'-1,2-ethanediylbis-","InChI=1S/C12H24N2O2/c1-3-5-7-11(15)13-9-10-14-12(16)8-6-4-2/h3-10H2,1-2H3,(H,13,15)(H,14,16)",RPTHWMGVZGXIPQ-UHFFFAOYSA-N,CCCCC(=O)NCCNC(=O)CCCC,-1.8145