,ID,Name,InChI,InChIKey,SMILES,Solubility
2047,B-2048,"propanedioic acid, hexyl-","InChI=1S/C9H16O4/c1-2-3-4-5-6-7(8(10)11)9(12)13/h7H,2-6H2,1H3,(H,10,11)(H,12,13)",UPFSMSDGKQSRLD-UHFFFAOYSA-N,CCCCCCC(C(O)=O)C(O)=O,-1.6566
2048,B-2049,"2,3,6-trichlorophenoxyacetic acid","InChI=1S/C8H5Cl3O3/c9-4-1-2-5(10)8(7(4)11)14-3-6(12)13/h1-2H,3H2,(H,12,13)",GQOHYQAHKDLXCV-UHFFFAOYSA-N,OC(=O)COc1c(Cl)ccc(Cl)c1Cl,-2.6198
2049,B-2050,"ethanone, 2-methoxy-1-phenyl-","InChI=1S/C9H10O2/c1-11-7-9(10)8-5-3-2-4-6-8/h2-6H,7H2,1H3",YRNDGUSDBCARGC-UHFFFAOYSA-N,COCC(=O)c1ccccc1,-0.7616
2050,B-2051,n-(3-chlorallyl) hexaminium chloride,"InChI=1S/C9H16ClN4.ClH/c10-2-1-3-14-7-11-4-12(8-14)6-13(5-11)9-14;/h1-2H,3-9H2;1H/q+1;/p-1/b2-1+;",UKHVLWKBNNSRRR-TYYBGVCCSA-M,[Cl-].Cl/C=C/C[N+]12CN3CN(CN(C3)C1)C2,0.0829
2051,B-2052,2-buten-1-ol (cis),"InChI=1S/C4H8O/c1-2-3-4-5/h2-3,5H,4H2,1H3/b3-2-",WCASXYBKJHWFMY-IHWYPQMZSA-N,C\C=C/CO,0.3621
2052,B-2053,"ethane, 2-chloro-1,1,1-trinitro-","InChI=1S/C2H2ClN3O6/c3-1-2(4(7)8,5(9)10)6(11)12/h1H2",BDQJEJZWJJUQGU-UHFFFAOYSA-N,[O-][N+](=O)C(CCl)([N+]([O-])=O)[N+]([O-])=O,-0.2586
2053,B-2054,"butanedioic acid, tetraethyl-","InChI=1S/C12H22O4/c1-5-11(6-2,9(13)14)12(7-3,8-4)10(15)16/h5-8H2,1-4H3,(H,13,14)(H,15,16)",CQCFISPMNREOQX-UHFFFAOYSA-N,CCC(CC)(C(O)=O)C(CC)(CC)C(O)=O,-2.9644
2054,B-2055,"propanoic acid, 3-butoxy-, methyl ester","InChI=1S/C8H16O3/c1-3-4-6-11-7-5-8(9)10-2/h3-7H2,1-2H3",VBCSBEIIIFLVQV-UHFFFAOYSA-N,CCCCOCCC(=O)OC,-1.2909
2055,B-2056,dl-2-octanol,"InChI=1S/C8H18O/c1-3-4-5-6-7-8(2)9/h8-9H,3-7H2,1-2H3",SJWFXCIHNDVPSH-UHFFFAOYSA-N,CCCCCCC(C)O,-2.0355
2056,B-2057,dipropetryne,"InChI=1S/C11H21N5S/c1-6-17-11-15-9(12-7(2)3)14-10(16-11)13-8(4)5/h7-8H,6H2,1-5H3,(H2,12,13,14,15,16)",NPWMZOGDXOFZIN-UHFFFAOYSA-N,CCSc1nc(NC(C)C)nc(NC(C)C)n1,-4.2031
2057,B-2058,crotonaldehyde,"InChI=1S/C4H6O/c1-2-3-4-5/h2-4H,1H3/b3-2-",MLUCVPSAIODCQM-IHWYPQMZSA-N,C\C=C/C=O,0.41200000000000003
2058,B-2059,"propanoic acid, 2-methyl-, 4-nitrophenyl ester","InChI=1S/C10H11NO4/c1-7(2)10(12)15-9-5-3-8(4-6-9)11(13)14/h3-7H,1-2H3",AIKAOGTVMFOQKJ-UHFFFAOYSA-N,CC(C)C(=O)Oc1ccc(cc1)[N+]([O-])=O,-3.9588
2059,B-2060,"propanoic acid, 3-methoxy-, butyl ester","InChI=1S/C8H16O3/c1-3-4-6-11-8(9)5-7-10-2/h3-7H2,1-2H3",RRIRSNXZGJWTQM-UHFFFAOYSA-N,CCCCOC(=O)CCOC,-1.2135
2060,B-2061,"butanedioic acid, chloro-, (s)-","InChI=1S/C4H5ClO4/c5-2(4(8)9)1-3(6)7/h2H,1H2,(H,6,7)(H,8,9)/t2-/m1/s1",QEGKXSHUKXMDRW-UWTATZPHSA-N,OC(=O)C[C@@H](Cl)C(O)=O,0.2047
2061,B-2062,"1,10-phenanthroline, 5-nitro-",InChI=1S/C12H7N3O2/c16-15(17)10-7-8-3-1-5-13-11(8)12-9(10)4-2-6-14-12/h1-7H,PDDBTWXLNJNICS-UHFFFAOYSA-N,[O-][N+](=O)c1cc2cccnc2c3ncccc13,-3.9172
2062,B-2063,"2,4(1h,3h)-pyrimidinedione, 5-ethyl-","InChI=1S/C6H8N2O2/c1-2-4-3-7-6(10)8-5(4)9/h3H,2H2,1H3,(H2,7,8,9,10)",RHIULBJJKFDJPR-UHFFFAOYSA-N,CCC1=CNC(=O)NC1=O,-1.9424
2063,B-2064,"l-aspartic acid, n-methyl-","InChI=1S/C5H9NO4/c1-6-3(5(9)10)2-4(7)8/h3,6H,2H2,1H3,(H,7,8)(H,9,10)",HOKKHZGPKSLGJE-UHFFFAOYSA-N,CNC(CC(O)=O)C(O)=O,-0.7544
2064,B-2065,"benzoic acid, 2,2'-(1-oxo-1,2-ethanediyl)bis-","InChI=1S/C16H12O5/c17-14(12-7-3-4-8-13(12)16(20)21)9-10-5-1-2-6-11(10)15(18)19/h1-8H,9H2,(H,18,19)(H,20,21)",YPNGOYFSQMSAOZ-UHFFFAOYSA-N,OC(=O)c1ccccc1CC(=O)c2ccccc2C(O)=O,-2.7910000000000004
2065,B-2066,"1,3-benzenedicarboxylic acid, 4-nitro-","InChI=1S/C8H5NO6/c10-7(11)4-1-2-6(9(14)15)5(3-4)8(12)13/h1-3H,(H,10,11)(H,12,13)",OCJFXVHDIVAONP-UHFFFAOYSA-N,OC(=O)c1ccc(c(c1)C(O)=O)[N+]([O-])=O,-1.3391
2066,B-2067,4-chloroazobenzene,InChI=1S/C12H9ClN2/c13-10-6-8-12(9-7-10)15-14-11-4-2-1-3-5-11/h1-9H,NJFDMENHTAYHMA-UHFFFAOYSA-N,Clc1ccc(cc1)N=Nc2ccccc2,-5.7023
2067,B-2068,"2h-1,3-oxazin-2-one, tetrahydro-3-[(5-nitrofurfu","InChI=1S/C9H9N3O5/c13-9-11(4-1-5-16-9)10-6-7-2-3-8(17-7)12(14)15/h2-3,6H,1,4-5H2/b10-6+",NOZLWTTVYNQLNJ-UXBLZVDNSA-N,[O-][N+](=O)c1oc(cc1)\C=N\N2CCCOC2=O,-3.4757
2068,B-2069,"naphtho[2,1-b]furan-2(1)h-one","InChI=1S/C12H8O2/c13-12-7-10-9-4-2-1-3-8(9)5-6-11(10)14-12/h1-6H,7H2",KVLORZFYGDNPIQ-UHFFFAOYSA-N,O=C1Cc2c(O1)ccc3ccccc23,-2.7078
2069,B-2070,ajmaline,"InChI=1S/C20H26N2O2/c1-3-10-11-8-14-17-20(12-6-4-5-7-13(12)21(17)2)9-15(16(11)18(20)23)22(14)19(10)24/h4-7,10-11,14-19,23-24H,3,8-9H2,1-2H3/t10-,11-,14-,15-,16?,17-,18?,19+,20+/m0/s1",CJDRUOGAGYHKKD-QFTSDIPNSA-N,CC[C@@H]1[C@@H](O)N2[C@H]3C[C@@H]1C4C(O)[C@@]5(C[C@H]24)[C@H]3N(C)c6ccccc56,-2.8266
2070,B-2071,decylpropanedioic acid,"InChI=1S/C13H24O4/c1-2-3-4-5-6-7-8-9-10-11(12(14)15)13(16)17/h11H,2-10H2,1H3,(H,14,15)(H,16,17)",HCUZVMHXDRSBKX-UHFFFAOYSA-N,CCCCCCCCCCC(C(O)=O)C(O)=O,-3.99
2071,B-2072,"benzenemethanol, 2-hydroxy-5-methyl-","InChI=1S/C8H10O2/c1-6-2-3-8(10)7(4-6)5-9/h2-4,9-10H,5H2,1H3",ZUVDVLYXIZFDRM-UHFFFAOYSA-N,Cc1ccc(O)c(CO)c1,-0.3143
2072,B-2073,"1h-pyrrole-2-carboxylic acid, 4-ethyl-5-formyl-3","InChI=1S/C11H15NO3/c1-4-8-7(3)10(11(14)15-5-2)12-9(8)6-13/h6,12H,4-5H2,1-3H3",ZPKWGTHVNZEDTD-UHFFFAOYSA-N,CCOC(=O)c1[nH]c(C=O)c(CC)c1C,-2.7186
2073,B-2074,niflumic acid,"InChI=1S/C13H9F3N2O2/c14-13(15,16)8-3-1-4-9(7-8)18-11-10(12(19)20)5-2-6-17-11/h1-7H,(H,17,18)(H,19,20)",JZFPYUNJRRFVQU-UHFFFAOYSA-N,OC(=O)c1cccnc1Nc2cccc(c2)C(F)(F)F,-4.1718
2074,B-2075,"2-propanone, 1-(2-piperidinyl)-","InChI=1S/C8H15NO/c1-7(10)6-8-4-2-3-5-9-8/h8-9H,2-6H2,1H3",JEIZLWNUBXHADF-UHFFFAOYSA-N,CC(=O)CC1CCCCN1,-0.4509
2075,B-2076,3-methoxybutyl acetate,"InChI=1S/C7H14O3/c1-6(9-3)4-5-10-7(2)8/h6H,4-5H2,1-3H3",QMYGFTJCQFEDST-UHFFFAOYSA-N,COC(C)CCOC(C)=O,-1.5022
2076,B-2077,"3,4-hexanedione, dioxime","InChI=1S/C6H12N2O2/c1-3-5(7-9)6(4-2)8-10/h7,9H,3-4H2,1-2H3/b6-5+",XYYHQWXNCDZZLY-AATRIKPKSA-N,CC\C(NO)=C(\CC)N=O,-2.5525
2077,B-2078,"morpholine, 4,4',4''-phosphinylidynetris-","InChI=1S/C12H24N3O4P/c16-20(13-1-7-17-8-2-13,14-3-9-18-10-4-14)15-5-11-19-12-6-15/h1-12H2",WXMQHPKQCPCDQO-UHFFFAOYSA-N,O=[P](N1CCOCC1)(N2CCOCC2)N3CCOCC3,0.2984
2078,B-2079,"benzenesulfonamide, 4-amino-n-(4,5-dimethyl-2-py","InChI=1S/C12H14N4O2S/c1-8-7-14-12(15-9(8)2)16-19(17,18)11-5-3-10(13)4-6-11/h3-7H,13H2,1-2H3,(H,14,15,16)",IHEAINLLXOBUEW-UHFFFAOYSA-N,Cc1cnc(N[S](=O)(=O)c2ccc(N)cc2)nc1C,-3.1435
2079,B-2080,"1,1,3-trimethylcyclopentane","InChI=1S/C8H16/c1-7-4-5-8(2,3)6-7/h7H,4-6H2,1-3H3",OBKHYUIZSOIEPG-UHFFFAOYSA-N,CC1CCC(C)(C)C1,-4.4784
2080,B-2081,"piperazine-2,5-dione, 3-methyl-","InChI=1S/C5H8N2O2/c1-3-5(9)6-2-4(8)7-3/h3H,2H2,1H3,(H,6,9)(H,7,8)",ICCHEGCKVBMSTF-UHFFFAOYSA-N,CC1NC(=O)CNC1=O,0.2903
2081,B-2082,n-nitrosomethylvinylamine,"InChI=1S/C3H6N2O/c1-3-5(2)4-6/h3H,1H2,2H3",AWZVYNHQGTZJIH-UHFFFAOYSA-N,CN(C=C)N=O,-0.4579
2082,B-2083,4-pyrimidone,"InChI=1S/C4H4N2O/c7-4-1-2-5-3-6-4/h1-3H,(H,5,6,7)",DNCYBUMDUBHIJZ-UHFFFAOYSA-N,O=C1NC=NC=C1,0.586
2083,B-2084,"2,4,6-cycloheptatrien-1-one, 3-bromo-2-hydroxy-","InChI=1S/C7H5BrO2/c8-5-3-1-2-4-6(9)7(5)10/h1-4H,(H,9,10)",ZWZVMMDEDBKUEC-UHFFFAOYSA-N,OC1=C(Br)C=CC=CC1=O,-2.4352
2084,B-2085,"ethanone, 1-(2-methyloxiranyl)-","InChI=1S/C5H8O2/c1-4(6)5(2)3-7-5/h3H2,1-2H3",MQUWXOWAAZHBSG-UHFFFAOYSA-N,CC(=O)C1(C)CO1,0.3797
2085,B-2086,"glycine, n-[(ethylthio)thioxomethyl]-","InChI=1S/C5H9NO2S2/c1-2-10-5(9)6-3-4(7)8/h2-3H2,1H3,(H,6,9)(H,7,8)",OEVJJBPEVKMYFQ-UHFFFAOYSA-N,CCSC(=S)NCC(O)=O,-1.0882
2086,B-2087,lactulose,"InChI=1S/C12H22O11/c13-1-4-6(16)7(17)8(18)11(21-4)22-9-5(2-14)23-12(20,3-15)10(9)19/h4-11,13-20H,1-3H2/t4-,5-,6+,7+,8-,9-,10+,11+,12-/m1/s1",JCQLYHFGKNRPGE-FCVZTGTOSA-N,OC[C@H]1O[C@@H](O[C@@H]2[C@@H](CO)O[C@](O)(CO)[C@H]2O)[C@H](O)[C@@H](O)[C@H]1O,0.3487
2087,B-2088,"carbamic acid, diethyl-, methyl ester","InChI=1S/C6H13NO2/c1-4-7(5-2)6(8)9-3/h4-5H2,1-3H3",VAGMFMWZIMXAGK-UHFFFAOYSA-N,CCN(CC)C(=O)OC,-0.2918
2088,B-2089,"1-naphthalenebutanoic acid, .gamma.-oxo-","InChI=1S/C14H12O3/c15-13(8-9-14(16)17)12-7-3-5-10-4-1-2-6-11(10)12/h1-7H,8-9H2,(H,16,17)",YNEXYDHOGAIPHO-UHFFFAOYSA-N,OC(=O)CCC(=O)c1cccc2ccccc12,-3.4833
2089,B-2090,aziprotryne,"InChI=1S/C7H11N7S/c1-4(2)9-5-10-6(13-14-8)12-7(11-5)15-3/h4H,1-3H3,(H,9,10,11,12)",AFIIBUOYKYSPKB-UHFFFAOYSA-N,CSc1nc(NC(C)C)nc(N=[N+]=[N-])n1,-3.6124
2090,B-2091,d-fenchone,"InChI=1S/C10H16O/c1-9(2)7-4-5-10(3,6-7)8(9)11/h7H,4-6H2,1-3H3/t7-,10+/m1/s1",LHXDLQBQYFFVNW-XCBNKYQSSA-N,CC1(C)[C@@H]2CC[C@@](C)(C2)C1=O,-1.8507
2091,B-2092,"phosphonic diamide, p-phenyl-","InChI=1S/C6H9N2OP/c7-10(8,9)6-4-2-1-3-5-6/h1-5H,(H4,7,8,9)",SIZHJVYZJFWGHF-UHFFFAOYSA-N,N[P](N)(=O)c1ccccc1,-1.1482
2092,B-2093,"1,3-propanediamine, n-phenyl-","InChI=1S/C9H14N2/c10-7-4-8-11-9-5-2-1-3-6-9/h1-3,5-6,11H,4,7-8,10H2",DOSWHECVUKBMCG-UHFFFAOYSA-N,NCCCNc1ccccc1,-1.6543
2093,B-2094,nitralin,"InChI=1S/C13H19N3O6S/c1-4-6-14(7-5-2)13-11(15(17)18)8-10(23(3,21)22)9-12(13)16(19)20/h8-9H,4-7H2,1-3H3",UMKANAFDOQQUKE-UHFFFAOYSA-N,CCCN(CCC)c1c(cc(cc1[N+]([O-])=O)[S](C)(=O)=O)[N+]([O-])=O,-5.7601
2094,B-2095,n-phenylphthalamic acid,"InChI=1S/C14H11NO3/c16-13(15-10-6-2-1-3-7-10)11-8-4-5-9-12(11)14(17)18/h1-9H,(H,15,16)(H,17,18)",DSUPUOGOCIFZBG-UHFFFAOYSA-N,OC(=O)c1ccccc1C(=O)Nc2ccccc2,-4.0814
2095,B-2096,kryptocyanine,"InChI=1S/C25H25N2.HI/c1-3-26-18-16-20(22-12-5-7-14-24(22)26)10-9-11-21-17-19-27(4-2)25-15-8-6-13-23(21)25;/h5-19H,3-4H2,1-2H3;1H/q+1;/p-1",CEJANLKHJMMNQB-UHFFFAOYSA-M,[I-].CCN1C=CC(=CC=Cc2cc[n+](CC)c3ccccc23)c4ccccc14,-2.6816
2096,B-2097,o-hydroxy phenylacetamide,"InChI=1S/C8H9NO2/c1-6(10)9-7-4-2-3-5-8(7)11/h2-5,11H,1H3,(H,9,10)",ADVGKWPZRIDURE-UHFFFAOYSA-N,CC(=O)Nc1ccccc1O,-0.4471
2097,B-2098,3-chloro-2-nitrobenzoic acid,"InChI=1S/C7H4ClNO4/c8-5-3-1-2-4(7(10)11)6(5)9(12)13/h1-3H,(H,10,11)/p-1",VCHSXYHBMFKRBK-UHFFFAOYSA-M,[O-]C(=O)c1cccc(Cl)c1[N+]([O-])=O,-2.6323
2098,B-2099,"serine, o-ethyl-","InChI=1S/C5H11NO3/c1-2-9-3-4(6)5(7)8/h4H,2-3,6H2,1H3,(H,7,8)/t4-/m0/s1",AFGCRUGTZPDWSF-BYPYZUCNSA-N,CCOC[C@H](N)C(O)=O,0.524
2099,B-2100,"propanoic acid, 2,2'-dithiobis-","InChI=1S/C6H10O4S2/c7-5(8)1-3-11-12-4-2-6(9)10/h1-4H2,(H,7,8)(H,9,10)",YCLSOMLVSHPPFV-UHFFFAOYSA-N,OC(=O)CCSSCCC(O)=O,-0.9301
2100,B-2101,crotononitrile,"InChI=1S/C4H5N/c1-2-3-4-5/h2-3H,1H3/b3-2+",NKKMVIVFRUYPLQ-NSCUHMNNSA-N,C/C=C/C#N,-0.4287
2101,B-2102,1-hexen-3-ol,"InChI=1S/C6H12O/c1-3-5-6(7)4-2/h4,6-7H,2-3,5H2,1H3",BVOSSZSHBZQJOI-UHFFFAOYSA-N,CCCC(O)C=C,-0.5993
2102,B-2103,4-methyl-1-penten-3-ol,"InChI=1S/C6H12O/c1-4-6(7)5(2)3/h4-7H,1H2,2-3H3",SZKVYEHTIWILMA-UHFFFAOYSA-N,CC(C)C(O)C=C,-0.515
2103,B-2104,2-hexene-4-ol,"InChI=1S/C6H12O/c1-3-5-6(7)4-2/h3,5-7H,4H2,1-2H3/b5-3+",KWUXUOPPQQMMIL-HWKANZROSA-N,CCC(O)\C=C\C,-0.4198
2104,B-2105,"benzenepropanoic acid, .alpha.-oxo-.beta.-phenyl","InChI=1S/C15H12O3/c16-14(15(17)18)13(11-7-3-1-4-8-11)12-9-5-2-6-10-12/h1-10,13H,(H,17,18)",VDIDZYZFFJPJCJ-UHFFFAOYSA-N,OC(=O)C(=O)C(c1ccccc1)c2ccccc2,-2.3354
2105,B-2106,kasugamycin,"InChI=1S/C14H21N3O3/c1-14(2,3)16-13(19)20-11-8-6-7-10(9-11)15-12(18)17(4)5/h6-9H,1-5H3,(H,15,18)(H,16,19)",OWNAXTAAAQTBSP-UHFFFAOYSA-N,CN(C)C(=O)Nc1cccc(OC(=O)NC(C)(C)C)c1,-2.9342
2106,B-2107,"phosphinic acid, di-4-morpholinyl-, phenyl ester","InChI=1S/C14H21N2O4P/c17-21(15-6-10-18-11-7-15,16-8-12-19-13-9-16)20-14-4-2-1-3-5-14/h1-5H,6-13H2",ARRSANOSOGNTIJ-UHFFFAOYSA-N,O=[P](Oc1ccccc1)(N2CCOCC2)N3CCOCC3,0.3925
2107,B-2108,"propanoic acid, 3-hydroxy-, butyl ester","InChI=1S/C7H14O3/c1-2-3-6-10-7(9)4-5-8/h8H,2-6H2,1H3",MENWVOUYOZQBDM-UHFFFAOYSA-N,CCCCOC(=O)CCO,-1.2899
2108,B-2109,"2,3-dimethyl-2-pentanol","InChI=1S/C7H16O/c1-5-6(2)7(3,4)8/h6,8H,5H2,1-4H3",YRSIFCHKXFKNME-UHFFFAOYSA-N,CCC(C)C(C)(C)O,-0.8707
2109,B-2110,"butanedioic acid, 2,2'-thiobis-","InChI=1S/C8H10O8S/c9-5(10)1-3(7(13)14)17-4(8(15)16)2-6(11)12/h3-4H,1-2H2,(H,9,10)(H,11,12)(H,13,14)(H,15,16)",SASYRHXVHLPMQD-UHFFFAOYSA-N,OC(=O)CC(SC(CC(O)=O)C(O)=O)C(O)=O,-0.4908
2110,B-2111,3-methyl-2-nitrophenol,"InChI=1S/C7H7NO3/c1-5-3-2-4-6(9)7(5)8(10)11/h2-4,9H,1H3",QIORDSKCCHRSSD-UHFFFAOYSA-N,Cc1cccc(O)c1[N+]([O-])=O,-1.64
2111,B-2112,"acetamide, 2-chloro-n-(chloroacetyl)-","InChI=1S/C4H5Cl2NO2/c5-1-3(8)7-4(9)2-6/h1-2H2,(H,7,8,9)",UWZCYHHAEYIVRW-UHFFFAOYSA-N,ClCC(=O)NC(=O)CCl,-2.2304
2112,B-2113,"2-benzothiazolesulfenamide, n,n-dicyclohexyl-","InChI=1S/C19H26N2S2/c1-3-9-15(10-4-1)21(16-11-5-2-6-12-16)23-19-20-17-13-7-8-14-18(17)22-19/h7-8,13-16H,1-6,9-12H2",CMAUJSNXENPPOF-UHFFFAOYSA-N,C1CCC(CC1)N(Sc2sc3ccccc3n2)C4CCCCC4,-6.7886
2113,B-2114,"benzoic acid, 4,5-dimethoxy-2-nitro-","InChI=1S/C9H9NO6/c1-15-7-3-5(9(11)12)6(10(13)14)4-8(7)16-2/h3-4H,1-2H3,(H,11,12)/p-1",WWCMFGBGMJAJRX-UHFFFAOYSA-M,COc1cc(C([O-])=O)c(cc1OC)[N+]([O-])=O,-0.7543
2114,B-2115,"benzoic acid, 2-(acetyloxy)-, 4-(acetylamino)phe","InChI=1S/C17H15NO5/c1-11(19)18-13-7-9-14(10-8-13)23-17(21)15-5-3-4-6-16(15)22-12(2)20/h3-10H,1-2H3,(H,18,19)",FEJKLNWAOXSSNR-UHFFFAOYSA-N,CC(=O)Nc1ccc(OC(=O)c2ccccc2OC(C)=O)cc1,-4.1949
2115,B-2116,"piperidine, 1-(phenylsulfonyl)-","InChI=1S/C11H15NO2S/c13-15(14,11-7-3-1-4-8-11)12-9-5-2-6-10-12/h1,3-4,7-8H,2,5-6,9-10H2",VRYWBMTXKFQBCA-UHFFFAOYSA-N,O=[S](=O)(N1CCCCC1)c2ccccc2,-2.5365
2116,B-2117,"benzeneacetonitrile, .alpha.-(diethylamino)-","InChI=1S/C12H16N2/c1-3-14(4-2)12(10-13)11-8-6-5-7-9-11/h5-9,12H,3-4H2,1-2H3",MNUHBMWEFILMEW-UHFFFAOYSA-N,CCN(CC)C(C#N)c1ccccc1,-0.9738
2117,B-2118,alpha-chlordane,"InChI=1S/C10H6Cl8/c11-3-1-2-4(5(3)12)9(16)7(14)6(13)8(2,15)10(9,17)18/h2-5H,1H2",BIWJNBZANLAXMG-UHFFFAOYSA-N,ClC1CC2C(C1Cl)C3(Cl)C(=C(Cl)C2(Cl)C3(Cl)Cl)Cl,-6.8644
2118,B-2119,chlordane (trans),"InChI=1S/C10H6Cl8/c11-3-1-2-4(5(3)12)9(16)7(14)6(13)8(2,15)10(9,17)18/h2-5H,1H2",BIWJNBZANLAXMG-UHFFFAOYSA-N,ClC1CC2C(C1Cl)C3(Cl)C(=C(Cl)C2(Cl)C3(Cl)Cl)Cl,-6.8644
2119,B-2120,flurbiprofen,"InChI=1S/C15H13FO2/c1-10(15(17)18)12-7-8-13(14(16)9-12)11-5-3-2-4-6-11/h2-10H,1H3,(H,17,18)",SYTBZMRGLBWNTM-UHFFFAOYSA-N,CC(C(O)=O)c1ccc(c(F)c1)c2ccccc2,-4.4848
2120,B-2121,"quinoline, 2-(nitromethyl)-","InChI=1S/C10H8N2O2/c13-12(14)7-9-6-5-8-3-1-2-4-10(8)11-9/h1-6H,7H2",SIQRLWJNWZCECZ-UHFFFAOYSA-N,[O-][N+](=O)Cc1ccc2ccccc2n1,-2.0545
2121,B-2122,ditalimfos (laptran),"InChI=1S/C12H14NO4PS/c1-3-16-18(19,17-4-2)13-11(14)9-7-5-6-8-10(9)12(13)15/h5-8H,3-4H2,1-2H3",MTBZIGHNGSTDJV-UHFFFAOYSA-N,CCO[P](=S)(OCC)N1C(=O)c2ccccc2C1=O,-3.3522
2122,B-2123,"hexanedioic acid, 2,5-dimercapto-","InChI=1S/C6H10O4S2/c7-5(8)3(11)1-2-4(12)6(9)10/h3-4,11-12H,1-2H2,(H,7,8)(H,9,10)",SUVZGLSQFGNBQI-UHFFFAOYSA-N,OC(=O)C(S)CCC(S)C(O)=O,-2.4758
2123,B-2124,"l-aspartic acid, n-[(ethylthio)thioxomethyl]-","InChI=1S/C7H11NO4S2/c1-2-14-7(13)8-4(6(11)12)3-5(9)10/h4H,2-3H2,1H3,(H,8,13)(H,9,10)(H,11,12)/t4-/m0/s1",KKUMBCQWVRPGMH-BYPYZUCNSA-N,CCSC(=S)N[C@@H](CC(O)=O)C(O)=O,-1.3863
2124,B-2125,"ethane, 1,1'-oxybis[2-[(2-chloroethyl)sulfonyl]-","InChI=1S/C8H16Cl2O5S2/c9-1-5-16(11,12)7-3-15-4-8-17(13,14)6-2-10/h1-8H2",IMQZHNMZKUCNAB-UHFFFAOYSA-N,ClCC[S](=O)(=O)CCOCC[S](=O)(=O)CCCl,-1.9408
2125,B-2126,"1,4-benzenedicarboxylic acid, 2-methoxy-","InChI=1S/C9H8O5/c1-14-7-4-5(8(10)11)2-3-6(7)9(12)13/h2-4H,1H3,(H,10,11)(H,12,13)",VQBBXLZPRXHYBO-UHFFFAOYSA-N,COc1cc(ccc1C(O)=O)C(O)=O,-1.9916
2126,B-2127,norleucine,"InChI=1S/C6H13NO2/c1-2-3-4-5(7)6(8)9/h5H,2-4,7H2,1H3,(H,8,9)",LRQKBLKVPFOOQJ-UHFFFAOYSA-N,CCCCC(N)C(O)=O,-1.061
2127,B-2128,"acetamide, n-(4-chloro-2-methylphenyl)-","InChI=1S/C9H10ClNO/c1-6-5-8(10)3-4-9(6)11-7(2)12/h3-5H,1-2H3,(H,11,12)",WMHHXYOPEQARIN-UHFFFAOYSA-N,CC(=O)Nc1ccc(Cl)cc1C,-2.3097
2128,B-2129,dimethirimol,"InChI=1S/C11H19N3O/c1-5-6-7-9-8(2)12-11(14(3)4)13-10(9)15/h5-7H2,1-4H3,(H,12,13,15)",CJHXCRMKMMBYJQ-UHFFFAOYSA-N,CCCCC1=C(C)NC(=NC1=O)N(C)C,-2.2416
2129,B-2130,"benzeneacetic acid, -[(sulfooxy)methyl]-, 8-meth","InChI=1S/C17H23NO6S/c1-18-13-7-8-14(18)10-15(9-13)24-17(19)16(11-23-25(20,21)22)12-5-3-2-4-6-12/h2-6,13-16H,7-11H2,1H3,(H,20,21,22)",GMLBHJMTVBLXLJ-UHFFFAOYSA-N,CN1C2CCC1CC(C2)OC(=O)C(CO[S](O)(=O)=O)c3ccccc3,-1.5675
2130,B-2131,carboxin,"InChI=1S/C12H13NO2S/c1-9-11(16-8-7-15-9)12(14)13-10-5-3-2-4-6-10/h2-6H,7-8H2,1H3,(H,13,14)",GYSSRZJIHXQEHQ-UHFFFAOYSA-N,CC1=C(SCCO1)C(=O)Nc2ccccc2,-3.2043
2131,B-2132,oxycarboxin,"InChI=1S/C12H13NO4S/c1-9-11(18(15,16)8-7-17-9)12(14)13-10-5-3-2-4-6-10/h2-6H,7-8H2,1H3,(H,13,14)",AMEKQAFGQBKLKX-UHFFFAOYSA-N,CC1=C(C(=O)Nc2ccccc2)[S](=O)(=O)CCO1,-2.2809
2132,B-2133,cyclohexylacetic acid,"InChI=1S/C8H14O2/c9-8(10)6-7-4-2-1-3-5-7/h7H,1-6H2,(H,9,10)",LJOODBDWMQKMFB-UHFFFAOYSA-N,OC(=O)CC1CCCCC1,-1.6935
2133,B-2134,"propanamide, n-hexadecyl-2-hydroxy-","InChI=1S/C19H39NO2/c1-3-4-5-6-7-8-9-10-11-12-13-14-15-16-17-20-19(22)18(2)21/h18,21H,3-17H2,1-2H3,(H,20,22)",SNUWGZLOWPBEIJ-UHFFFAOYSA-N,CCCCCCCCCCCCCCCCNC(=O)C(C)O,-3.6512
2134,B-2135,"propanamide, 2-hydroxy-n-pentyl-","InChI=1S/C8H17NO2/c1-3-4-5-6-9-8(11)7(2)10/h7,10H,3-6H2,1-2H3,(H,9,11)",CBHYPXXMQKAMNM-UHFFFAOYSA-N,CCCCCNC(=O)C(C)O,-0.3825
2135,B-2136,"d-glycero-d-gulo-heptopyranoside, phenyl, á-","InChI=1S/C13H18O7/c14-6-8(15)12-10(17)9(16)11(18)13(20-12)19-7-4-2-1-3-5-7/h1-5,8-18H,6H2",UWYXADYVSWKWAX-UHFFFAOYSA-N,OCC(O)C1OC(Oc2ccccc2)C(O)C(O)C1O,-1.5537
2136,B-2137,"phosphonic acid, 3-(nitrophenyl)-","InChI=1S/C6H6NO5P/c8-7(9)5-2-1-3-6(4-5)13(10,11)12/h1-4H,(H2,10,11,12)",OXWXINKWKITCIH-UHFFFAOYSA-N,O[P](O)(=O)c1cccc(c1)[N+]([O-])=O,0.6835
2137,B-2138,"3-pyridinecarboxylic acid, decyl ester","InChI=1S/C16H25NO2/c1-2-3-4-5-6-7-8-9-13-19-16(18)15-11-10-12-17-14-15/h10-12,14H,2-9,13H2,1H3",OVSJCKDIBDNMMK-UHFFFAOYSA-N,CCCCCCCCCCOC(=O)c1cccnc1,-3.1901
2138,B-2139,"dl-leucine, n-formyl-","InChI=1S/C7H13NO3/c1-5(2)3-6(7(10)11)8-4-9/h4-6H,3H2,1-2H3,(H,8,9)(H,10,11)",HFBHOAHFRNLZGN-UHFFFAOYSA-N,CC(C)CC(NC=O)C(O)=O,-0.7328
2139,B-2140,"2,3-butanediol (meso)","InChI=1S/C4H10O2/c1-3(5)4(2)6/h3-6H,1-2H3/t3-,4+",OWBTYPJTUOEWEK-ZXZARUISSA-N,C[C@@H](O)[C@H](C)O,1.0452
2140,B-2141,"methanesulfonamide, n-(methylsulfonyl)-","InChI=1S/C2H7NO4S2/c1-8(4,5)3-9(2,6)7/h3H,1-2H3",ICTGBOFCIDHVPA-UHFFFAOYSA-N,C[S](=O)(=O)N[S](C)(=O)=O,0.0402
2141,B-2142,"propionic acid, 3-methoxy-, propyl ester","InChI=1S/C7H14O3/c1-3-5-10-7(8)4-6-9-2/h3-6H2,1-2H3",JCMFJIHDWDKYIL-UHFFFAOYSA-N,CCCOC(=O)CCOC,-0.6598
2142,B-2143,"1,1,4,4-tetramethoxy-but-2-ene","InChI=1S/C8H16O4/c1-9-7(10-2)5-6-8(11-3)12-4/h5-8H,1-4H3/b6-5-",ZFGVCDSFRAMNMT-WAYWQWQTSA-N,COC(OC)\C=C/C(OC)OC,0.055
2143,B-2144,"1h-pyrrole, 2,3-dihydro-1,5-dimethyl-","InChI=1S/C6H11N/c1-6-4-3-5-7(6)2/h4H,3,5H2,1-2H3",MFGQUMAXNNHCNG-UHFFFAOYSA-N,CN1CCC=C1C,0.1265
2144,B-2145,"cis-1,2,2-trimethyl-1,3-cyclopentanedicarboxyl*","InChI=1S/C10H16O4/c1-9(2)6(7(11)12)4-5-10(9,3)8(13)14/h6H,4-5H2,1-3H3,(H,11,12)(H,13,14)",LSPHULWDVZXLIL-UHFFFAOYSA-N,CC1(C)C(CCC1(C)C(O)=O)C(O)=O,-1.7701
2145,B-2146,"phosphonothioic  dihydrazide, p-phenyl-","InChI=1S/C6H11N4PS/c7-9-11(12,10-8)6-4-2-1-3-5-6/h1-5H,7-8H2,(H2,9,10,12)",HDCICIWMRHHDMV-UHFFFAOYSA-N,NN[P](=S)(NN)c1ccccc1,-1.425
2146,B-2147,"acetic acid, (3,5-dimethylphenoxy)-","InChI=1S/C10H12O3/c1-7-3-8(2)5-9(4-7)13-6-10(11)12/h3-5H,6H2,1-2H3,(H,11,12)",NIPZZANLNKBKIS-UHFFFAOYSA-N,Cc1cc(C)cc(OCC(O)=O)c1,-2.3527
2147,B-2148,"2,8-dichlorodibenzofuran",InChI=1S/C12H6Cl2O/c13-7-1-3-11-9(5-7)10-6-8(14)2-4-12(10)15-11/h1-6H,IVVRJIDVYSPKFZ-UHFFFAOYSA-N,Clc1ccc2oc3ccc(Cl)cc3c2c1,-7.2135
2148,B-2149,n-hexyl-lactamide,"InChI=1S/C9H19NO2/c1-3-4-5-6-7-10-9(12)8(2)11/h8,11H,3-7H2,1-2H3,(H,10,12)",RUUHGTZPDZPPOC-UHFFFAOYSA-N,CCCCCCNC(=O)C(C)O,-0.9487
2149,B-2150,2-acetoxy-propionic acid butyl ester,"InChI=1S/C9H16O4/c1-4-5-6-12-9(11)7(2)13-8(3)10/h7H,4-6H2,1-3H3",FRKISMRVEIRXFS-UHFFFAOYSA-N,CCCCOC(=O)C(C)OC(C)=O,-0.7536
2150,B-2151,"1h-purine-2,6-dione, 8-ethyl-3,7-dihydro-1,3,7-t","InChI=1S/C10H14N4O2/c1-5-6-11-8-7(12(6)2)9(15)14(4)10(16)13(8)3/h5H2,1-4H3",DRWCPERSPGFNIK-UHFFFAOYSA-N,CCc1nc2N(C)C(=O)N(C)C(=O)c2n1C,-1.5687
2151,B-2152,"imidodicarbonimidic diamide, n-2-naphthalenyl-","InChI=1S/C12H13N5/c13-11(14)17-12(15)16-10-6-5-8-3-1-2-4-9(8)7-10/h1-7H,(H6,13,14,15,16,17)",RDLIBCPWPNCFBW-UHFFFAOYSA-N,NC(N)=NC(N)=Nc1ccc2ccccc2c1,-2.5497
2152,B-2153,"(2,5-dioxoimidazolidin-4-yl)acetic acid","InChI=1S/C5H6N2O4/c8-3(9)1-2-4(10)7-5(11)6-2/h2H,1H2,(H,8,9)(H2,6,7,10,11)",DQQLZADYSWBCOX-UHFFFAOYSA-N,OC(=O)CC1NC(=O)NC1=O,-1.1517
2153,B-2154,"phenol, 2-methyl-5-nitro-","InChI=1S/C7H7NO3/c1-5-2-3-6(8(10)11)4-7(5)9/h2-4,9H,1H3",UMFDLIXUUJMPSI-UHFFFAOYSA-N,Cc1ccc(cc1O)[N+]([O-])=O,-2.1851
2154,B-2155,"carbamothioic acid, s-[2-oxo-2-(phenylamino)ethy","InChI=1S/C9H10N2O2S/c10-9(13)14-6-8(12)11-7-4-2-1-3-5-7/h1-5H,6H2,(H2,10,13)(H,11,12)",CEINNGQDMFZTJK-UHFFFAOYSA-N,NC(=O)SCC(=O)Nc1ccccc1,-1.3228