,ID,Name,InChI,InChIKey,SMILES,Solubility
1481,B-1482,"thiourea, 3-(nitrophenyl)-","InChI=1S/C7H7N3O2S/c8-7(13)9-5-2-1-3-6(4-5)10(11)12/h1-4H,(H3,8,9,13)",HQEMUQNZGCZHHN-UHFFFAOYSA-N,NC(=S)Nc1cccc(c1)[N+]([O-])=O,-1.4499
1482,B-1483,"1-ph-3,5-dime-4-nitrosopyrazole","InChI=1S/C11H11N3O/c1-8-11(13-15)9(2)14(12-8)10-6-4-3-5-7-10/h3-7H,1-2H3",SCHFUNOUOHIHSX-UHFFFAOYSA-N,Cc1nn(c2ccccc2)c(C)c1N=O,-3.7355
1483,B-1484,anthracene-9-carboxylic acid,"InChI=1S/C15H10O2/c16-15(17)14-12-7-3-1-5-10(12)9-11-6-2-4-8-13(11)14/h1-9H,(H,16,17)",XGWFJBFNAQHLEF-UHFFFAOYSA-N,OC(=O)c1c2ccccc2cc3ccccc13,-3.4174
1484,B-1485,sulfamoxole,"InChI=1S/C11H13N3O3S/c1-7-8(2)17-11(13-7)14-18(15,16)10-5-3-9(12)4-6-10/h3-6H,12H2,1-2H3,(H,13,14)",CYFLXLSBHQBMFT-UHFFFAOYSA-N,Cc1oc(N[S](=O)(=O)c2ccc(N)cc2)nc1C,-2.2025
1485,B-1486,tolyfluanide,"InChI=1S/C10H13Cl2FN2O2S2/c1-8-4-6-9(7-5-8)15(18-10(11,12)13)19(16,17)14(2)3/h4-7H,1-3H3",HYVWIQDYBVKITD-UHFFFAOYSA-N,CN(C)[S](=O)(=O)N(SC(F)(Cl)Cl)c1ccc(C)cc1,-5.5864
1486,B-1487,phosmet,"InChI=1S/C11H12NO4PS2/c1-15-17(18,16-2)19-7-12-10(13)8-5-3-4-6-9(8)11(12)14/h3-6H,7H2,1-2H3",LMNZTLDVJIUSHT-UHFFFAOYSA-N,CO[P](=S)(OC)SCN1C(=O)c2ccccc2C1=O,-4.1141
1487,B-1488,"2,4,6-tri(tert-butyl)phenol","InChI=1S/C18H30O/c1-16(2,3)12-10-13(17(4,5)6)15(19)14(11-12)18(7,8)9/h10-11,19H,1-9H3",PFEFOYRSMXVNEL-UHFFFAOYSA-N,CC(C)(C)c1cc(c(O)c(c1)C(C)(C)C)C(C)(C)C,-3.875
1488,B-1489,bensulide,"InChI=1S/C14H24NO4PS3/c1-12(2)18-20(21,19-13(3)4)22-11-10-15-23(16,17)14-8-6-5-7-9-14/h5-9,12-13,15H,10-11H2,1-4H3",RRNIZKPFKNDSRS-UHFFFAOYSA-N,CC(C)O[P](=S)(OC(C)C)SCCN[S](=O)(=O)c1ccccc1,-4.2014
1489,B-1490,dimethyltin dichloride,InChI=1S/2CH3.2ClH.Sn/h2*1H3;2*1H;/q;;;;+2/p-2,PKKGKUDPKRTKLJ-UHFFFAOYSA-L,C[Sn](C)(Cl)Cl,-1.0407
1490,B-1491,"phosphonic acid, methyl-, dimethyl ester","InChI=1S/C3H9O3P/c1-5-7(3,4)6-2/h1-3H3",VONWDASPFIQPDY-UHFFFAOYSA-N,CO[P](C)(=O)OC,0.9063
1491,B-1492,hexaethyl tetraphosphate,"InChI=1S/C12H30O13P4/c1-7-17-26(13,18-8-2)23-28(15,21-11-5)25-29(16,22-12-6)24-27(14,19-9-3)20-10-4/h7-12H2,1-6H3",DAJYZXUXDOSMCG-UHFFFAOYSA-N,CCO[P](=O)(OCC)O[P](=O)(OCC)O[P](=O)(OCC)O[P](=O)(OCC)OCC,0.2956
1492,B-1493,n-ethyl-n-nitrosourea,"InChI=1S/C3H7N3O2/c1-2-6(5-8)3(4)7/h2H2,1H3,(H2,4,7)",FUSGACRLAFQQRL-UHFFFAOYSA-N,CCN(N=O)C(N)=O,-0.9547
1493,B-1494,"3,4-dichloro-1-butene","InChI=1S/C4H6Cl2/c1-2-4(6)3-5/h2,4H,1,3H2",XVEASTGLHPVZNA-UHFFFAOYSA-N,ClCC(Cl)C=C,-2.4737
1494,B-1495,"propanedioic acid, heptyl-","InChI=1S/C10H18O4/c1-2-3-4-5-6-7-8(9(11)12)10(13)14/h8H,2-7H2,1H3,(H,11,12)(H,13,14)",YSFZWUJOBANROZ-UHFFFAOYSA-N,CCCCCCCC(C(O)=O)C(O)=O,-2.0411
1495,B-1496,octylmalonic acid,"InChI=1S/C11H20O4/c1-2-3-4-5-6-7-8-9(10(12)13)11(14)15/h9H,2-8H2,1H3,(H,12,13)(H,14,15)",QJGNSTCICFBACB-UHFFFAOYSA-N,CCCCCCCCC(C(O)=O)C(O)=O,-2.92
1496,B-1497,dl-norvaline,"InChI=1S/C5H11NO2/c1-2-3-4(6)5(7)8/h4H,2-3,6H2,1H3,(H,7,8)",SNDPXSYFESPGGJ-UHFFFAOYSA-N,CCCC(N)C(O)=O,-0.1448
1497,B-1498,1-chloro-2-fluoroethane,InChI=1S/C2H4ClF/c3-1-2-4/h1-2H2,VEZJSKSPVQQGIS-UHFFFAOYSA-N,FCCCl,-0.5291
1498,B-1499,2-methyl-1-pentene,"InChI=1S/C6H12/c1-4-5-6(2)3/h2,4-5H2,1,3H3",WWUVJRULCWHUSA-UHFFFAOYSA-N,CCCC(C)=C,-3.033
1499,B-1500,ethyl 3-ethoxypropanoate,"InChI=1S/C7H14O3/c1-3-9-6-5-7(8)10-4-2/h3-6H2,1-2H3",BHXIWUJLHYHGSJ-UHFFFAOYSA-N,CCOCCC(=O)OCC,-0.4206
1500,B-1501,"2,5-dimethyl-2,4-hexadiene","InChI=1S/C8H14/c1-7(2)5-6-8(3)4/h5-6H,1-4H3",DZPCYXCBXGQBRN-UHFFFAOYSA-N,CC(C)=CC=C(C)C,-3.537
1501,B-1502,"1,4-dichloro-2-butene","InChI=1S/C4H6Cl2/c5-3-1-2-4-6/h1-2H,3-4H2/b2-1+",FQDIANVAWVHZIR-OWOJBTEDSA-N,ClC/C=C/CCl,-2.3335
1502,B-1503,glycidylaldehyde,"InChI=1S/C3H4O2/c4-1-3-2-5-3/h1,3H,2H2",IWYRWIUNAVNFPE-UHFFFAOYSA-N,O=CC1CO1,1.1423
1503,B-1504,o-chloroanisole,"InChI=1S/C7H7ClO/c1-9-7-5-3-2-4-6(7)8/h2-5H,1H3",QGRPVMLBTFGQDQ-UHFFFAOYSA-N,COc1ccccc1Cl,-2.4639
1504,B-1505,"2-amino-4,6-dimethylpyrimidine","InChI=1S/C6H9N3/c1-4-3-5(2)9-6(7)8-4/h3H,1-2H3,(H2,7,8,9)",IDQNBVFPZMCDDN-UHFFFAOYSA-N,Cc1cc(C)nc(N)n1,-0.4884
1505,B-1506,"quinoline, decahydro-","InChI=1S/C9H17N/c1-2-6-9-8(4-1)5-3-7-10-9/h8-10H,1-7H2/t8-,9+/m1/s1",POTIYWUALSJREP-BDAKNGLRSA-N,C1CC[C@@H]2NCCC[C@H]2C1,-1.0831
1506,B-1507,1-phenoxy-2-propanol,"InChI=1S/C9H12O2/c1-8(10)7-11-9-5-3-2-4-6-9/h2-6,8,10H,7H2,1H3",IBLKWZIFZMJLFL-UHFFFAOYSA-N,CC(O)COc1ccccc1,-1.141
1507,B-1508,"9,10-dihydrophenanthrene","InChI=1S/C14H12/c1-3-7-13-11(5-1)9-10-12-6-2-4-8-14(12)13/h1-8H,9-10H2",XXPBFNVKTVJZKF-UHFFFAOYSA-N,C1Cc2ccccc2c3ccccc13,-4.6347
1508,B-1509,"benzoic acid, 2-benzoylhydrazide","InChI=1S/C14H12N2O2/c17-13(11-7-3-1-4-8-11)15-16-14(18)12-9-5-2-6-10-12/h1-10H,(H,15,17)(H,16,18)",GRRIYLZJLGTQJX-UHFFFAOYSA-N,O=C(NNC(=O)c1ccccc1)c2ccccc2,-1.5883
1509,B-1510,"o,p'-ddt","InChI=1S/C14H9Cl5/c15-10-7-5-9(6-8-10)13(14(17,18)19)11-3-1-2-4-12(11)16/h1-8,13H",CVUGPAFCQJIYDT-UHFFFAOYSA-N,Clc1ccc(cc1)C(c2ccccc2Cl)C(Cl)(Cl)Cl,-6.6202
1510,B-1511,"phosphoric acid, diethyl propyl ester","InChI=1S/C7H17O4P/c1-4-7-11-12(8,9-5-2)10-6-3/h4-7H2,1-3H3",IHPUVAUZMHQZSK-UHFFFAOYSA-N,CCCO[P](=O)(OCC)OCC,0.4063
1511,B-1512,tributylphosphine oxide,"InChI=1S/C12H27OP/c1-4-7-10-14(13,11-8-5-2)12-9-6-3/h4-12H2,1-3H3",MNZAKDODWSQONA-UHFFFAOYSA-N,CCCC[P](=O)(CCCC)CCCC,-0.5932
1512,B-1513,diethyl glutarate,"InChI=1S/C9H16O4/c1-3-12-8(10)6-5-7-9(11)13-4-2/h3-7H2,1-2H3",OUWSNHWQZPEFEX-UHFFFAOYSA-N,CCOC(=O)CCCC(=O)OCC,-1.3297
1513,B-1514,2-hydroxyethyl acrylate,"InChI=1S/C5H8O3/c1-2-5(7)8-4-3-6/h2,6H,1,3-4H2",OMIGHNLMNHATMP-UHFFFAOYSA-N,OCCOC(=O)C=C,0.9351
1514,B-1515,calcium methionate,"InChI=1S/CH4O6S2.Ca/c2-8(3,4)1-9(5,6)7;/h1H2,(H,2,3,4)(H,5,6,7);/q;+2/p-2",RPHZRUDLEUBFCM-UHFFFAOYSA-L,[Ca++].[O-][S](=O)(=O)C[S]([O-])(=O)=O,0.1255
1515,B-1516,4-penten-1-ol,"InChI=1S/C5H10O/c1-2-3-4-5-6/h2,6H,1,3-5H2",LQAVWYMTUMSFBE-UHFFFAOYSA-N,OCCCC=C,-0.1793
1516,B-1517,"4,4'-oxydi-2-butanol","InChI=1S/C8H18O3/c1-7(9)3-5-11-6-4-8(2)10/h7-10H,3-6H2,1-2H3",AFSYRVDDZGJTIL-UHFFFAOYSA-N,CC(O)CCOCCC(C)O,0.7899
1517,B-1518,"1,12-dodecanedicarboxylic acid","InChI=1S/C14H26O4/c15-13(16)11-9-7-5-3-1-2-4-6-8-10-12-14(17)18/h1-12H2,(H,15,16)(H,17,18)",HQHCYKULIHKCEB-UHFFFAOYSA-N,OC(=O)CCCCCCCCCCCCC(O)=O,-3.1112
1518,B-1519,"1,3-dioxolane, 2-(1-methylethyl)-","InChI=1S/C6H12O2/c1-5(2)6-7-3-4-8-6/h5-6H,3-4H2,1-2H3",SMYRHRFGKYUCFB-UHFFFAOYSA-N,CC(C)C1OCCO1,-0.0651
1519,B-1520,"pyrimidine, 2-(methylthio)-","InChI=1S/C5H6N2S/c1-8-5-6-3-2-4-7-5/h2-4H,1H3",FOEMIZSFFWGXHX-UHFFFAOYSA-N,CSc1ncccn1,-0.402
1520,B-1521,"2,6-dimethyl-1,3-dioxan-4-ol acetate","InChI=1S/C8H14O4/c1-5-4-8(11-6(2)9)12-7(3)10-5/h5,7-8H,4H2,1-3H3",PHMNXPYGVPEQSJ-UHFFFAOYSA-N,CC1CC(OC(C)O1)OC(C)=O,0.759
1521,B-1522,"1h-purine-2,6-dione, 3,7-dihydro-1,3,8-trimethyl","InChI=1S/C8H10N4O2/c1-4-9-5-6(10-4)11(2)8(14)12(3)7(5)13/h1-3H3,(H,9,10)",WZBKGWBHAPBSBF-UHFFFAOYSA-N,CN1C(=O)N(C)c2nc(C)[nH]c2C1=O,-0.7276
1522,B-1523,"1h-purine-2,6-dione, 3,7-dihydro-1,3,7,8-tetrame",InChI=1S/C9H12N4O2/c1-5-10-7-6(11(5)2)8(14)13(4)9(15)12(7)3/h1-4H3,LFHHOHMIVKIHMG-UHFFFAOYSA-N,CN1C(=O)N(C)c2nc(C)n(C)c2C1=O,-1.4493
1523,B-1524,"l-tyrosine, n-acetyl-, ethyl ester","InChI=1S/C13H17NO4/c1-3-18-13(17)12(14-9(2)15)8-10-4-6-11(16)7-5-10/h4-7,12,16H,3,8H2,1-2H3,(H,14,15)/t12-/m0/s1",SKAWDTAMLOJQNK-LBPRGKRZSA-N,CCOC(=O)[C@H](Cc1ccc(O)cc1)NC(C)=O,-1.8586
1524,B-1525,methoproptryne,"InChI=1S/C11H21N5OS/c1-8(2)13-10-14-9(12-6-5-7-17-3)15-11(16-10)18-4/h8H,5-7H2,1-4H3,(H2,12,13,14,15,16)",DDUIUBPJPOKOMV-UHFFFAOYSA-N,COCCCNc1nc(NC(C)C)nc(SC)n1,-2.9284
1525,B-1526,"2,4-bis((3-methoxypropyl)amino)-6-(methylthio)-s","InChI=1S/C12H23N5O2S/c1-18-8-4-6-13-10-15-11(14-7-5-9-19-2)17-12(16-10)20-3/h4-9H2,1-3H3,(H2,13,14,15,16,17)",FBMDQVBGIYSDTI-UHFFFAOYSA-N,COCCCNc1nc(NCCCOC)nc(SC)n1,-3.4792
1526,B-1527,lorazepam,"InChI=1S/C15H10Cl2N2O2/c16-8-5-6-12-10(7-8)13(19-15(21)14(20)18-12)9-3-1-2-4-11(9)17/h1-7,15,21H,(H,18,20)",DIWRORZWFLOCLC-UHFFFAOYSA-N,OC1N=C(c2ccccc2Cl)c3cc(Cl)ccc3NC1=O,-3.6036
1527,B-1528,"androst-5-en-17-one,3-(acetyloxy),3-beta-","InChI=1S/C21H30O3/c1-13(22)24-15-8-10-20(2)14(12-15)4-5-16-17-6-7-19(23)21(17,3)11-9-18(16)20/h4,15-18H,5-12H2,1-3H3/t15-,16-,17-,18-,20-,21-/m0/s1",NCMZQTLCXHGLOK-ZKHIMWLXSA-N,CC(=O)O[C@H]1CC[C@]2(C)[C@H]3CC[C@@]4(C)[C@@H](CCC4=O)[C@@H]3CC=C2C1,-4.4584
1528,B-1529,kebuzone,"InChI=1S/C19H18N2O3/c1-14(22)12-13-17-18(23)20(15-8-4-2-5-9-15)21(19(17)24)16-10-6-3-7-11-16/h2-11,17H,12-13H2,1H3",LGYTZKPVOAIUKX-UHFFFAOYSA-N,CC(=O)CCC1C(=O)N(N(C1=O)c2ccccc2)c3ccccc3,-3.2676
1529,B-1530,"phosphonic acid, (trichloromethyl)-, diethyl est","InChI=1S/C5H10Cl3O3P/c1-3-10-12(9,11-4-2)5(6,7)8/h3-4H2,1-2H3",RVAQSYWDOSHWGP-UHFFFAOYSA-N,CCO[P](=O)(OCC)C(Cl)(Cl)Cl,-1.7541
1530,B-1531,potassium citrate,"InChI=1S/C6H8O7.3K/c7-3(8)1-6(13,5(11)12)2-4(9)10;;;/h13H,1-2H2,(H,7,8)(H,9,10)(H,11,12);;;/q;3*+1/p-3",QEEAPRPFLLJWCF-UHFFFAOYSA-K,[K+].[K+].[K+].OC(CC([O-])=O)(CC([O-])=O)C([O-])=O,0.2962
1531,B-1532,allylidenediacetate,"InChI=1S/C7H10O4/c1-4-7(10-5(2)8)11-6(3)9/h4,7H,1H2,2-3H3",TXECTBGVEUDNSL-UHFFFAOYSA-N,CC(=O)OC(OC(C)=O)C=C,-1.2449
1532,B-1533,"acetamide, n,n'-1,2-ethanediylbis-","InChI=1S/C6H12N2O2/c1-5(9)7-3-4-8-6(2)10/h3-4H2,1-2H3,(H,7,9)(H,8,10)",WNYIBZHOMJZDKN-UHFFFAOYSA-N,CC(=O)NCCNC(C)=O,0.6755
1533,B-1534,1-decene,"InChI=1S/C10H20/c1-3-5-7-9-10-8-6-4-2/h3H,1,4-10H2,2H3",AFFLGGQVNFXPEV-UHFFFAOYSA-N,CCCCCCCCC=C,-5.3911
1534,B-1535,n-methylpyrrolidone,"InChI=1S/C5H9NO/c1-6-4-2-3-5(6)7/h2-4H2,1H3",SECXISVLQFMRJM-UHFFFAOYSA-N,CN1CCCC1=O,1.0038
1535,B-1536,"benzenemethanol, 4-bromo-","InChI=1S/C7H7BrO/c8-7-3-1-6(5-9)2-4-7/h1-4,9H,5H2",VEDDBHYQWFOITD-UHFFFAOYSA-N,OCc1ccc(Br)cc1,-1.9295
1536,B-1537,p-chlorobenzyl alcohol,"InChI=1S/C7H7ClO/c8-7-3-1-6(5-9)2-4-7/h1-4,9H,5H2",PTHGDVCPCZKZKR-UHFFFAOYSA-N,OCc1ccc(Cl)cc1,-1.7561
1537,B-1538,potassium biphthalate,"InChI=1S/C8H6O4.K/c9-7(10)5-3-1-2-4-6(5)8(11)12;/h1-4H,(H,9,10)(H,11,12);/q;+1/p-1",IWZKICVEHNUQTL-UHFFFAOYSA-M,[K+].OC(=O)c1ccccc1C([O-])=O,-0.3895
1538,B-1539,"2,4,6-triethoxy-s-triazine","InChI=1S/C9H15N3O3/c1-4-13-7-10-8(14-5-2)12-9(11-7)15-6-3/h4-6H2,1-3H3",ZLKYBXDNXFQYDL-UHFFFAOYSA-N,CCOc1nc(OCC)nc(OCC)n1,-1.4838
1539,B-1540,3-nitrofluoranthene,InChI=1S/C16H9NO2/c18-17(19)15-9-8-13-11-5-2-1-4-10(11)12-6-3-7-14(15)16(12)13/h1-9H,PIHGQKMEAMSUNA-UHFFFAOYSA-N,[O-][N+](=O)c1ccc2c3ccccc3c4cccc1c24,-7.1031
1540,B-1541,methacycline,"InChI=1S/C22H22N2O8/c1-7-8-5-4-6-9(25)11(8)16(26)12-10(7)17(27)14-15(24(2)3)18(28)13(21(23)31)20(30)22(14,32)19(12)29/h4-6,10,14-15,17,25-27,31-32H,1,23H2,2-3H3/b21-13-/t10-,14-,15+,17+,22+/m1/s1",GLFJCEVWKWQSJP-ISFNZQQKSA-N,CN(C)[C@H]1[C@@H]2[C@@H](O)[C@@H]3C(=C)c4cccc(O)c4C(=C3C(=O)[C@]2(O)C(=O)\C(=C(N)/O)C1=O)O,-1.768
1541,B-1542,amidothion,"InChI=1S/C7H16NO4PS2/c1-10-5-4-8-7(9)6-15-13(14,11-2)12-3/h4-6H2,1-3H3,(H,8,9)",GDTZUQIYUMGJRT-UHFFFAOYSA-N,COCCNC(=O)CS[P](=S)(OC)OC,-1.1356
1542,B-1543,demeton-s-methyl,"InChI=1S/C6H15O3PS2/c1-4-11-5-6-12-10(7,8-2)9-3/h4-6H2,1-3H3",WEBQKRLKWNIYKK-UHFFFAOYSA-N,CCSCCS[P](=O)(OC)OC,-1.8438
1543,B-1544,ethyl(tert-amyl) ether,"InChI=1S/C7H16O/c1-5-7(3,4)8-6-2/h5-6H2,1-4H3",KFRVYYGHSPLXSZ-UHFFFAOYSA-N,CCOC(C)(C)CC,-2.4631
1544,B-1545,"hexanedioic acid, 2,3,3-trimethyl-","InChI=1S/C9H16O4/c1-6(8(12)13)9(2,3)5-4-7(10)11/h6H,4-5H2,1-3H3,(H,10,11)(H,12,13)",YBAXNZSTHONUAE-UHFFFAOYSA-N,CC(C(O)=O)C(C)(C)CCC(O)=O,-1.5265
1545,B-1546,n-(hydroxymethyl)acrylamide,"InChI=1S/C4H7NO2/c1-2-4(7)5-3-6/h2,6H,1,3H2,(H,5,7)",CNCOEDDPFOAUMB-UHFFFAOYSA-N,OCNC(=O)C=C,0.8101
1546,B-1547,"butanamide, n,n'-1,2-ethanediylbis-","InChI=1S/C10H20N2O2/c1-3-5-9(13)11-7-8-12-10(14)6-4-2/h3-8H2,1-2H3,(H,11,13)(H,12,14)",AIWAFUBJIYAIGI-UHFFFAOYSA-N,CCCC(=O)NCCNC(=O)CCC,-0.6222
1547,B-1548,6-undecanone,"InChI=1S/C11H22O/c1-3-5-7-9-11(12)10-8-6-4-2/h3-10H2,1-2H3",ZPQAKYPOZRXKFA-UHFFFAOYSA-N,CCCCCC(=O)CCCCC,-3.5322
1548,B-1549,butyl nitrate,"InChI=1S/C4H9NO3/c1-2-3-4-8-5(6)7/h2-4H2,1H3",QQHZPQUHCAKSOL-UHFFFAOYSA-N,CCCCO[N+]([O-])=O,-2.0268
1549,B-1550,3-hexyne,"InChI=1S/C6H10/c1-3-5-6-4-2/h3-4H2,1-2H3",DQQNMIPXXNPGCV-UHFFFAOYSA-N,CCC#CCC,-2.1675
1550,B-1551,n-nitrosopyrrolidine,InChI=1S/C4H8N2O/c7-5-6-3-1-2-4-6/h1-4H2,WNYADZVDBIBLJJ-UHFFFAOYSA-N,O=NN1CCCC1,0.9995
1551,B-1552,n-nitrosohexamethyleneimine,InChI=1S/C6H12N2O/c9-7-8-5-3-1-2-4-6-8/h1-6H2,UZMVSVHUTOAPTD-UHFFFAOYSA-N,O=NN1CCCCCC1,-1.0006
1552,B-1553,"2,3,6-trichlorophenol","InChI=1S/C6H3Cl3O/c7-3-1-2-4(8)6(10)5(3)9/h1-2,10H",XGCHAIDDPMFRLJ-UHFFFAOYSA-N,Oc1c(Cl)ccc(Cl)c1Cl,-2.6422
1553,B-1554,"1h-purine, 8-methyl-","InChI=1S/C6H6N4/c1-4-9-5-2-7-3-8-6(5)10-4/h2-3H,1H3,(H,7,8,9,10)",UZQYFLWZKIMYKS-UHFFFAOYSA-N,Cc1[nH]c2cncnc2n1,-0.3829
1554,B-1555,2-azacyclo-nonanone,"InChI=1S/C8H15NO/c10-8-6-4-2-1-3-5-7-9-8/h1-7H2,(H,9,10)",YDLSUFFXJYEVHW-UHFFFAOYSA-N,O=C1CCCCCCCN1,0.6329
1555,B-1556,"2,3-dihydro-1,2-benzisothiazole-1,1-dioxide","InChI=1S/C7H7NO2S/c9-11(10)7-4-2-1-3-6(7)5-8-11/h1-4,8H,5H2",GVYVHZKTSVDMNT-UHFFFAOYSA-N,O=[S]1(=O)NCc2ccccc12,-1.5208
1556,B-1557,"pteridine, 7-methyl-","InChI=1S/C7H6N4/c1-5-2-9-6-3-8-4-10-7(6)11-5/h2-4H,1H3",KOCYTWBTXZOUFS-UHFFFAOYSA-N,Cc1cnc2cncnc2n1,0.0571
1557,B-1558,n-benzyl-n-methylnitrosoamine,"InChI=1S/C8H10N2O/c1-10(9-11)7-8-5-3-2-4-6-8/h2-6H,7H2,1H3",NGXUJKBJBFLCAR-UHFFFAOYSA-N,CN(Cc1ccccc1)N=O,-1.5224
1558,B-1559,"2h-1-benzopyran-2-one, 4-bromo-",InChI=1S/C9H5BrO2/c10-7-5-9(11)12-8-4-2-1-3-6(7)8/h1-5H,CSMSWYXPXRIHBY-UHFFFAOYSA-N,BrC1=CC(=O)Oc2ccccc12,-1.6533
1559,B-1560,"2,3,4,5-tetrachloroanisole","InChI=1S/C7H4Cl4O/c1-12-4-2-3(8)5(9)7(11)6(4)10/h2H,1H3",FUUHMSUPRUNWRQ-UHFFFAOYSA-N,COc1cc(Cl)c(Cl)c(Cl)c1Cl,-5.2605
1560,B-1561,p-methylphenoxyacetic acid,"InChI=1S/C9H10O3/c1-7-2-4-8(5-3-7)12-6-9(10)11/h2-5H,6H2,1H3,(H,10,11)",SFTDDFBJWUWKMN-UHFFFAOYSA-N,Cc1ccc(OCC(O)=O)cc1,-2.1414
1561,B-1562,p-methoxycinnamic acid (trans),"InChI=1S/C10H10O3/c1-13-9-5-2-8(3-6-9)4-7-10(11)12/h2-7H,1H3,(H,11,12)/b7-4+",AFDXODALSZRGIH-QPJJXVBHSA-N,COc1ccc(\C=C\C(O)=O)cc1,-1.9573
1562,B-1563,"benzene, 1,2,3,4-tetrachloro-5,6-dimethoxy-",InChI=1S/C8H6Cl4O2/c1-13-7-5(11)3(9)4(10)6(12)8(7)14-2/h1-2H3,NCYHCGGUQGDEQW-UHFFFAOYSA-N,COc1c(Cl)c(Cl)c(Cl)c(Cl)c1OC,-5.2394
1563,B-1564,cyolane,"InChI=1S/C7H14NO3PS2/c1-3-10-12(9,11-4-2)8-7-13-5-6-14-7/h3-6H2,1-2H3",ILBONRFSLATCRE-UHFFFAOYSA-N,CCO[P](=O)(OCC)N=C1SCCS1,-2.5941
1564,B-1565,azacyclotridecan-2-one,"InChI=1S/C12H23NO/c14-12-10-8-6-4-2-1-3-5-7-9-11-13-12/h1-11H2,(H,13,14)",JHWNWJKBPDFINM-UHFFFAOYSA-N,O=C1CCCCCCCCCCCN1,-2.8328
1565,B-1566,"phosphoramidic acid, (4-methyl-1,3-dithiolan-2-y","InChI=1S/C8H16NO3PS2/c1-4-11-13(10,12-5-2)9-8-14-6-7(3)15-8/h7H,4-6H2,1-3H3",LTQSAUHRSCMPLD-UHFFFAOYSA-N,CCO[P](=O)(OCC)N=C1SCC(C)S1,-3.6744
1566,B-1567,methidathion,"InChI=1S/C6H11N2O4PS3/c1-10-5-7-8(6(9)16-5)4-15-13(14,11-2)12-3/h4H2,1-3H3",MEBQXILRKZHVCX-UHFFFAOYSA-N,COC1=NN(CS[P](=S)(OC)OC)C(=O)S1,-3.2086
1567,B-1568,diphenamid,"InChI=1S/C16H17NO/c1-17(2)16(18)15(13-9-5-3-6-10-13)14-11-7-4-8-12-14/h3-12,15H,1-2H3",QAHFOPIILNICLA-UHFFFAOYSA-N,CN(C)C(=O)C(c1ccccc1)c2ccccc2,-2.964
1568,B-1569,medrogestone,"InChI=1S/C23H32O2/c1-14-12-17-18(21(3)9-6-16(25)13-20(14)21)7-11-23(5)19(17)8-10-22(23,4)15(2)24/h12-13,17-19H,6-11H2,1-5H3",HCFSGRMEEXUOSS-UHFFFAOYSA-N,CC(=O)C1(C)CCC2C3C=C(C)C4=CC(=O)CCC4(C)C3CCC12C,-5.2721
1569,B-1570,methylphosphonic acid,"InChI=1S/CH5O3P/c1-5(2,3)4/h1H3,(H2,2,3,4)",YACKEPLHDIMKIO-UHFFFAOYSA-N,C[P](O)(O)=O,-0.6813
1570,B-1571,"n,n-dimethylisopropylamine","InChI=1S/C5H13N/c1-5(2)6(3)4/h5H,1-4H3",VMOWKUTXPNPTEN-UHFFFAOYSA-N,CC(C)N(C)C,1.0597
1571,B-1572,"acetic acid, (nitrooxy)-, ethyl ester","InChI=1S/C4H7NO5/c1-2-9-4(6)3-10-5(7)8/h2-3H2,1H3",PMCOPORTQICYLN-UHFFFAOYSA-N,CCOC(=O)CO[N+]([O-])=O,-1.7111
1572,B-1573,"glycine, n-(ethoxycarbonyl)-, ethyl ester","InChI=1S/C7H13NO4/c1-3-11-6(9)5-8-7(10)12-4-2/h3-5H2,1-2H3,(H,8,10)",ORKAHUKYJCNDDI-UHFFFAOYSA-N,CCOC(=O)CNC(=O)OCC,-0.2435
1573,B-1574,2-hydroxypropyl acrylate,"InChI=1S/C6H10O3/c1-3-6(8)9-4-5(2)7/h3,5,7H,1,4H2,2H3",GWZMWHWAWHPNHN-UHFFFAOYSA-N,CC(O)COC(=O)C=C,0.8856
1574,B-1575,hydroxymethyl urea,"InChI=1S/C2H6N2O2/c3-2(6)4-1-5/h5H,1H2,(H3,3,4,6)",VGGLHLAESQEWCR-UHFFFAOYSA-N,NC(=O)NCO,-0.3463
1575,B-1576,1-pentyl nitrate,"InChI=1S/C5H11NO3/c1-2-3-4-5-9-6(7)8/h2-5H2,1H3",HSNWZBCBUUSSQD-UHFFFAOYSA-N,CCCCCO[N+]([O-])=O,-2.568
1576,B-1577,"2,5-dimethyltetrahydrofuran","InChI=1S/C6H12O/c1-5-3-4-6(2)7-5/h5-6H,3-4H2,1-2H3",OXMIDRBAFOEOQT-UHFFFAOYSA-N,CC1CCC(C)O1,0.0723
1577,B-1578,4-methyl-n-oxidepyridine,"InChI=1S/C6H7NO/c1-6-2-4-7(8)5-3-6/h2-5H,1H3",IWYYIZOHWPCALJ-UHFFFAOYSA-N,Cc1cc[n+]([O-])cc1,0.9621
1578,B-1579,3-methyl-n-oxidepyridine,"InChI=1S/C6H7NO/c1-6-3-2-4-7(8)5-6/h2-5H,1H3",DMGGLIWGZFZLIY-UHFFFAOYSA-N,CC1=CC=C[NH++]([O-])[CH-]1,0.9621
1579,B-1580,desisopropylatrazine,"InChI=1S/C5H8ClN5/c1-2-8-5-10-3(6)9-4(7)11-5/h2H2,1H3,(H3,7,8,9,10,11)",IVENSCMCQBJAKW-UHFFFAOYSA-N,CCNc1nc(N)nc(Cl)n1,-2.4135
1580,B-1581,azacycloundecan-2-one,"InChI=1S/C10H19NO/c12-10-8-6-4-2-1-3-5-7-9-11-10/h1-9H2,(H,11,12)",WULPUQZASCZTPO-UHFFFAOYSA-N,O=C1CCCCCCCCCN1,-1.8862
1581,B-1582,desmetryne,"InChI=1S/C8H15N5S/c1-5(2)10-7-11-6(9-3)12-8(13-7)14-4/h5H,1-4H3,(H2,9,10,11,12,13)",HCRWJJJUKUVORR-UHFFFAOYSA-N,CNc1nc(NC(C)C)nc(SC)n1,-2.5656
1582,B-1583,"1h-purine-2,6-dione, 7-butyl-3,7-dihydro-1,3-dim","InChI=1S/C11H16N4O2/c1-4-5-6-15-7-12-9-8(15)10(16)14(3)11(17)13(9)2/h7H,4-6H2,1-3H3",CPRWWXKLQNLTSZ-UHFFFAOYSA-N,CCCCn1cnc2N(C)C(=O)N(C)C(=O)c12,-1.8069
1583,B-1584,"4h-3,1-benzoxazin-4-one, 2-phenyl",InChI=1S/C14H9NO2/c16-14-11-8-4-5-9-12(11)15-13(17-14)10-6-2-1-3-7-10/h1-9H,HTTLBYITFHMYFK-UHFFFAOYSA-N,O=C1OC(=Nc2ccccc12)c3ccccc3,-4.6084
1584,B-1585,heptachlor epoxide,"InChI=1S/C10H5Cl7O/c11-3-1-2(4-5(3)18-4)9(15)7(13)6(12)8(1,14)10(9,16)17/h1-5H",ZXFXBSWRVIQKOD-UHFFFAOYSA-N,ClC1C2OC2C3C1C4(Cl)C(=C(Cl)C3(Cl)C4(Cl)Cl)Cl,-6.2893
1585,B-1586,"phosphonic diamide, p-(5-amino-3-phenyl-1h-1,2,4","InChI=1S/C12H19N6OP/c1-16(2)20(19,17(3)4)18-12(13)14-11(15-18)10-8-6-5-7-9-10/h5-9H,1-4H3,(H2,13,14,15)",BABJTMNVJXLAEX-UHFFFAOYSA-N,CN(C)[P](=O)(N(C)C)n1nc(nc1N)c2ccccc2,-3.0709
1586,B-1587,"glycine, n-(2,4,6-trinitrophenyl)-","InChI=1S/C8H6N4O8/c13-7(14)3-9-8-5(11(17)18)1-4(10(15)16)2-6(8)12(19)20/h1-2,9H,3H2,(H,13,14)",BUBMNUKMCHTIRR-UHFFFAOYSA-N,OC(=O)CNc1c(cc(cc1[N+]([O-])=O)[N+]([O-])=O)[N+]([O-])=O,-2.3922
1587,B-1588,octyl gallate,"InChI=1S/C15H22O5/c1-2-3-4-5-6-7-8-20-15(19)11-9-12(16)14(18)13(17)10-11/h9-10,16-18H,2-8H2,1H3",NRPKURNSADTHLJ-UHFFFAOYSA-N,CCCCCCCCOC(=O)c1cc(O)c(O)c(O)c1,-3.8945
1588,B-1589,dimethylsilanediol,"InChI=1S/C2H8O2Si/c1-5(2,3)4/h3-4H,1-2H3",XCLIHDJZGPCUBT-UHFFFAOYSA-N,C[Si](C)(O)O,1.0354
1589,B-1590,di-n-butyl tin diacetate,"InChI=1S/2C4H9.2C2H4O2.Sn/c2*1-3-4-2;2*1-2(3)4;/h2*1,3-4H2,2H3;2*1H3,(H,3,4);/q;;;;+2/p-2",JJLKTTCRRLHVGL-UHFFFAOYSA-L,CCCC[Sn++]CCCC.CC([O-])=O.CC([O-])=O,-4.7672
1590,B-1591,glyphosphate,"InChI=1S/C3H8NO5P/c5-3(6)1-4-2-10(7,8)9/h4H,1-2H2,(H,5,6)(H2,7,8,9)",XDDAORKBJWWYJS-UHFFFAOYSA-N,OC(=O)CNC[P](O)(O)=O,-1.2069
1591,B-1592,"1,3,4-thiadiazolidine-2,5-dithione","InChI=1S/C2H2N2S3/c5-1-3-4-2(6)7-1/h(H,3,5)(H,4,6)",BIGYLAKFCGVRAN-UHFFFAOYSA-N,S=C1NNC(=S)S1,-0.7552
1592,B-1593,1-bromo-2-fluorobenzene,InChI=1S/C6H4BrF/c7-5-3-1-2-4-6(5)8/h1-4H,IPWBFGUBXWMIPR-UHFFFAOYSA-N,Fc1ccccc1Br,-2.6958
1593,B-1594,"1h-pyrazol-4-ol, 1-phenyl-","InChI=1S/C9H8N2O/c12-9-6-10-11(7-9)8-4-2-1-3-5-8/h1-7,12H",PAIIFXHEHLRVNC-UHFFFAOYSA-N,Oc1cnn(c1)c2ccccc2,-1.9616
1594,B-1595,1-phenylheptane,"InChI=1S/C13H20/c1-2-3-4-5-7-10-13-11-8-6-9-12-13/h6,8-9,11-12H,2-5,7,10H2,1H3",LBNXAWYDQUGHGX-UHFFFAOYSA-N,CCCCCCCc1ccccc1,-5.5959
1595,B-1596,hexyl p-hydroxybenzoate,"InChI=1S/C13H18O3/c1-2-3-4-5-10-16-13(15)11-6-8-12(14)9-7-11/h6-9,14H,2-5,10H2,1H3",ULULAZKOCFNOIM-UHFFFAOYSA-N,CCCCCCOC(=O)c1ccc(O)cc1,-3.949
1596,B-1597,heptyl p-hydroxybenzoate,"InChI=1S/C14H20O3/c1-2-3-4-5-6-11-17-14(16)12-7-9-13(15)10-8-12/h7-10,15H,2-6,11H2,1H3",ZTJORNVITHUQJA-UHFFFAOYSA-N,CCCCCCCOC(=O)c1ccc(O)cc1,-4.0725
1597,B-1598,dichlofluanid,"InChI=1S/C9H11Cl2FN2O2S2/c1-13(2)18(15,16)14(17-9(10,11)12)8-6-4-3-5-7-8/h3-7H,1-2H3",WURGXGVFSMYFCG-UHFFFAOYSA-N,CN(C)[S](=O)(=O)N(SC(F)(Cl)Cl)c1ccccc1,-5.4088