,ID,Name,InChI,InChIKey,SMILES,Solubility
3841,B-3842,"1,1,2-trichlorotrifluoroethane","InChI=1S/C2Cl3F3/c3-1(4,6)2(5,7)8",AJDIZQLSFPQPEY-UHFFFAOYSA-N,FC(F)(Cl)C(F)(Cl)Cl,-3.0423
3842,B-3843,"1,2-dichlorotetrafluoroethane","InChI=1S/C2Cl2F4/c3-1(5,6)2(4,7)8",DDMOUSALMHHKOS-UHFFFAOYSA-N,FC(F)(Cl)C(F)(F)Cl,-3.1188
3843,B-3844,"1,1,2-trichloroethane","InChI=1S/C2H3Cl3/c3-1-2(4)5/h2H,1H2",UBOXGVDOUJQMTN-UHFFFAOYSA-N,ClCC(Cl)Cl,-1.4798
3844,B-3845,"1,1,2,2-tetrachloroethane",InChI=1S/C2H2Cl4/c3-1(4)2(5)6/h1-2H,QPFMBZIOSGYJDE-UHFFFAOYSA-N,ClC(Cl)C(Cl)Cl,-1.7536
3845,B-3846,"1,2-dibromoethane",InChI=1S/C2H4Br2/c3-1-2-4/h1-2H2,PAAZPARNPHGIKF-UHFFFAOYSA-N,BrCCBr,-1.6558
3846,B-3847,1-bromopropane,"InChI=1S/C3H7Br/c1-2-3-4/h2-3H2,1H3",CYNYIHKIEHGYOZ-UHFFFAOYSA-N,CCCBr,-1.7007
3847,B-3848,"1,2-dichloroethane",InChI=1S/C2H4Cl2/c3-1-2-4/h1-2H2,WSLDOOZREJYCGB-UHFFFAOYSA-N,ClCCCl,-1.065
3848,B-3849,bromocyclohexane,"InChI=1S/C6H11Br/c7-6-4-2-1-3-5-6/h6H,1-5H2",AQNQQHJNRPDOQV-UHFFFAOYSA-N,BrC1CCCCC1,-2.2943
3849,B-3850,1-bromobutane,"InChI=1S/C4H9Br/c1-2-3-4-5/h2-4H2,1H3",MPPPKRYCTPRNTB-UHFFFAOYSA-N,CCCCBr,-2.1978
3850,B-3851,1-chlorobutane,"InChI=1S/C4H9Cl/c1-2-3-4-5/h2-4H2,1H3",VFWCMGCRMGJXDK-UHFFFAOYSA-N,CCCCCl,-1.9251
3851,B-3852,1-chloro-3-bromopropane,InChI=1S/C3H6BrCl/c4-2-1-3-5/h1-3H2,MFESCIUQSIBMSM-UHFFFAOYSA-N,ClCCCBr,-1.8469
3852,B-3853,1-bromopentane,"InChI=1S/C5H11Br/c1-2-3-4-5-6/h2-5H2,1H3",YZWKKMVJZFACSU-UHFFFAOYSA-N,CCCCCBr,-3.0753
3853,B-3854,1-bromohexane,"InChI=1S/C6H13Br/c1-2-3-4-5-6-7/h2-6H2,1H3",MNDIARAMWBIKFW-UHFFFAOYSA-N,CCCCCCBr,-3.8078
3854,B-3855,"1,3-dichloropropane",InChI=1S/C3H6Cl2/c4-2-1-3-5/h1-3H2,YHRUOJUYPBUZOS-UHFFFAOYSA-N,ClCCCCl,-1.6137
3855,B-3856,alpha-hexachlorocyclohexane,InChI=1S/C6H6Cl6/c7-1-2(8)4(10)6(12)5(11)3(1)9/h1-6H,JLYXXMFPNIAWKQ-UHFFFAOYSA-N,ClC1C(Cl)C(Cl)C(Cl)C(Cl)C1Cl,-5.1626
3856,B-3857,delta-hexachlorocyclohexane,InChI=1S/C6H6Cl6/c7-1-2(8)4(10)6(12)5(11)3(1)9/h1-6H,JLYXXMFPNIAWKQ-UHFFFAOYSA-N,ClC1C(Cl)C(Cl)C(Cl)C(Cl)C1Cl,-4.4636
3857,B-3858,1-chloropropane,"InChI=1S/C3H7Cl/c1-2-3-4/h2-3H2,1H3",SNMVRZFUUCLYTO-UHFFFAOYSA-N,CCCCl,-1.4605
3858,B-3859,fluoromethane,InChI=1S/CH3F/c1-2/h1H3,NBVXSUQYWXRMNV-UHFFFAOYSA-N,CF,-0.1758
3859,B-3860,1-bromoheptane,"InChI=1S/C7H15Br/c1-2-3-4-5-6-7-8/h2-7H2,1H3",LSXKDWGTSHCFPP-UHFFFAOYSA-N,CCCCCCCBr,-4.431
3860,B-3861,1-chloroheptane,"InChI=1S/C7H15Cl/c1-2-3-4-5-6-7-8/h2-7H2,1H3",DZMDPHNGKBEVRE-UHFFFAOYSA-N,CCCCCCCCl,-3.9957
3861,B-3862,1-iodoheptane,"InChI=1S/C7H15I/c1-2-3-4-5-6-7-8/h2-7H2,1H3",LMHCYRULPLGEEZ-UHFFFAOYSA-N,CCCCCCCI,-4.8102
3862,B-3863,hexanal,"InChI=1S/C6H12O/c1-2-3-4-5-6-7/h6H,2-5H2,1H3",JARKCYVAAOWBJS-UHFFFAOYSA-N,CCCCCC=O,-1.2494
3863,B-3864,trichloroacetaldehyde,"InChI=1S/C2HCl3O/c3-2(4,5)1-6/h1H",HFFLGKNGCAIQMO-UHFFFAOYSA-N,ClC(Cl)(Cl)C=O,-0.6913
3864,B-3865,fufural,InChI=1S/C5H4O2/c6-4-5-2-1-3-7-5/h1-4H,HYBBIBNJHNGZAN-UHFFFAOYSA-N,O=Cc1occc1,-0.0962
3865,B-3866,m-nitrobenzaldehyde,InChI=1S/C7H5NO3/c9-5-6-2-1-3-7(4-6)8(10)11/h1-5H,ZETIVVHRRQLWFW-UHFFFAOYSA-N,[O-][N+](=O)c1cccc(C=O)c1,-1.9671
3866,B-3867,benzaldehyde,InChI=1S/C7H6O/c8-6-7-4-2-1-3-5-7/h1-6H,HUMNYLRZRPPJDN-UHFFFAOYSA-N,O=Cc1ccccc1,-1.2083
3867,B-3868,3-phenyl-2-propenal,InChI=1S/C9H8O/c10-8-4-7-9-5-2-1-3-6-9/h1-8H/b7-4+,KJPRLNWUNMBNBZ-QPJJXVBHSA-N,O=C/C=C/c1ccccc1,-1.9688
3868,B-3869,acrolein,"InChI=1S/C3H4O/c1-2-3-4/h2-3H,1H2",HGINCPLSRVDWNT-UHFFFAOYSA-N,C=CC=O,0.5777
3869,B-3870,piperonal,"InChI=1S/C8H6O3/c9-4-6-1-2-7-8(3-6)11-5-10-7/h1-4H,5H2",SATCULPHIDQDRE-UHFFFAOYSA-N,O=Cc1ccc2OCOc2c1,-1.6324
3870,B-3871,propionaldehyde,"InChI=1S/C3H6O/c1-2-3-4/h3H,2H2,1H3",NBBJYMSMWIIQGU-UHFFFAOYSA-N,CCC=O,0.7217
3871,B-3872,butyraldehyde,"InChI=1S/C4H8O/c1-2-3-4-5/h4H,2-3H2,1H3",ZTQSAGDEMFDKMZ-UHFFFAOYSA-N,CCCC=O,-0.0067
3872,B-3873,o-nitrobenzaldehyde,InChI=1S/C7H5NO3/c9-5-6-3-1-2-4-7(6)8(10)11/h1-5H,CMWKITSNTDAEDT-UHFFFAOYSA-N,[O-][N+](=O)c1ccccc1C=O,-1.8138
3873,B-3874,p-nitrobenzaldehyde,InChI=1S/C7H5NO3/c9-5-6-1-3-7(4-2-6)8(10)11/h1-5H,BXRFQSNOROATLV-UHFFFAOYSA-N,[O-][N+](=O)c1ccc(C=O)cc1,-1.8101
3874,B-3875,methyl acetate,InChI=1S/C3H6O2/c1-3(4)5-2/h1-2H3,KXKVLQRXCPHEJC-UHFFFAOYSA-N,COC(C)=O,0.5159
3875,B-3876,methyl methacrylate,"InChI=1S/C5H8O2/c1-4(2)5(6)7-3/h1H2,2-3H3",VVQNEPGJFQJSBK-UHFFFAOYSA-N,COC(=O)C(C)=C,-0.8244
3876,B-3877,diethyl phthalate,"InChI=1S/C12H14O4/c1-3-15-11(13)9-7-5-6-8-10(9)12(14)16-4-2/h5-8H,3-4H2,1-2H3",FLKPEMZONWLCSK-UHFFFAOYSA-N,CCOC(=O)c1ccccc1C(=O)OCC,-2.3134
3877,B-3878,di-isobutylphthalate,"InChI=1S/C16H22O4/c1-11(2)9-19-15(17)13-7-5-6-8-14(13)16(18)20-10-12(3)4/h5-8,11-12H,9-10H2,1-4H3",MGWAVDBGNNKXQV-UHFFFAOYSA-N,CC(C)COC(=O)c1ccccc1C(=O)OCC(C)C,-4.6522
3878,B-3879,dibutyl phthalate,"InChI=1S/C16H22O4/c1-3-5-11-19-15(17)13-9-7-8-10-14(13)16(18)20-12-6-4-2/h7-10H,3-6,11-12H2,1-2H3",DOIRQSBPFJWKBE-UHFFFAOYSA-N,CCCCOC(=O)c1ccccc1C(=O)OCCCC,-4.3954
3879,B-3880,butyl benzyl phthalate,"InChI=1S/C19H20O4/c1-2-3-13-22-18(20)16-11-7-8-12-17(16)19(21)23-14-15-9-5-4-6-10-15/h4-12H,2-3,13-14H2,1H3",IRIAEXORFWYRCZ-UHFFFAOYSA-N,CCCCOC(=O)c1ccccc1C(=O)OCc2ccccc2,-5.0649
3880,B-3881,"benzoic acid, methyl ester","InChI=1S/C8H8O2/c1-10-8(9)7-5-3-2-4-6-7/h2-6H,1H3",QPJVMBTYPHYUOC-UHFFFAOYSA-N,COC(=O)c1ccccc1,-1.8118
3881,B-3882,"nicotinic acid, methyl ester","InChI=1S/C7H7NO2/c1-10-7(9)6-3-2-4-8-5-6/h2-5H,1H3",YNBADRVTZLEFNH-UHFFFAOYSA-N,COC(=O)c1cccnc1,-0.4596
3882,B-3883,ethyl benzoate,"InChI=1S/C9H10O2/c1-2-11-9(10)8-6-4-3-5-7-8/h3-7H,2H2,1H3",MTZQAGJQAFMTAQ-UHFFFAOYSA-N,CCOC(=O)c1ccccc1,-2.3193
3883,B-3884,methyl acrylate,"InChI=1S/C4H6O2/c1-3-4(5)6-2/h3H,1H2,2H3",BAPJBEWLBFYGME-UHFFFAOYSA-N,COC(=O)C=C,-0.2412
3884,B-3885,ethyl methacrylate,"InChI=1S/C6H10O2/c1-4-8-6(7)5(2)3/h2,4H2,1,3H3",SUPCQIBBMFXVTL-UHFFFAOYSA-N,CCOC(=O)C(C)=C,-1.3251
3885,B-3886,"methacrylic acid, i-butyl ester","InChI=1S/C8H14O2/c1-6(2)5-10-8(9)7(3)4/h6H,3,5H2,1-2,4H3",RUMACXVDVNRZJZ-UHFFFAOYSA-N,CC(C)COC(=O)C(C)=C,-2.039
3886,B-3887,"methacrylic acid, n-butyl ester","InChI=1S/C8H14O2/c1-4-5-6-10-8(9)7(2)3/h2,4-6H2,1,3H3",SOGAXMICEFXMKE-UHFFFAOYSA-N,CCCCOC(=O)C(C)=C,-2.2498
3887,B-3888,"cinnamic acid, ethyl ester","InChI=1S/C11H12O2/c1-2-13-11(12)9-8-10-6-4-3-5-7-10/h3-9H,2H2,1H3/b9-8+",KBEBGUQPQBELIU-CMDGGOBGSA-N,CCOC(=O)\C=C\c1ccccc1,-2.9956
3888,B-3889,ethyl propionate,"InChI=1S/C5H10O2/c1-3-5(6)7-4-2/h3-4H2,1-2H3",FKRCODPIKNYEAC-UHFFFAOYSA-N,CCOC(=O)CC,-0.7259
3889,B-3890,"n-methylcarbamic acid, et ester","InChI=1S/C4H9NO2/c1-3-7-4(6)5-2/h3H2,1-2H3,(H,5,6)",SURZCVYFPAXNGN-UHFFFAOYSA-N,CCOC(=O)NC,0.8255
3890,B-3891,diethyl malonate,"InChI=1S/C7H12O4/c1-3-10-6(8)5-7(9)11-4-2/h3-5H2,1-2H3",IYXGSMUGOJNHAZ-UHFFFAOYSA-N,CCOC(=O)CC(=O)OCC,-0.8391
3891,B-3892,isobutyl acrylate,"InChI=1S/C7H12O2/c1-4-7(8)9-5-6(2)3/h4,6H,1,5H2,2-3H3",CFVWNXQPGQOHRJ-UHFFFAOYSA-N,CC(C)COC(=O)C=C,-1.8525
3892,B-3893,vinyl acetate,"InChI=1S/C4H6O2/c1-3-6-4(2)5/h3H,1H2,2H3",XTXRWKRVRITETP-UHFFFAOYSA-N,CC(=O)OC=C,-0.6339
3893,B-3894,propylene glycol me ether acetate,"InChI=1S/C6H12O3/c1-5(4-8-3)9-6(2)7/h5H,4H2,1-3H3",LLHKCFNBLRBOGN-UHFFFAOYSA-N,COCC(C)OC(C)=O,0.1756
3894,B-3895,triethyleneglycol dimethacrylate,"InChI=1S/C14H22O6/c1-11(2)13(15)19-9-7-17-5-6-18-8-10-20-14(16)12(3)4/h1,3,5-10H2,2,4H3",HWSSEYVMGDIFMH-UHFFFAOYSA-N,CC(=C)C(=O)OCCOCCOCCOC(=O)C(C)=C,-1.9006
3895,B-3896,n-propyl acetate,"InChI=1S/C5H10O2/c1-3-4-7-5(2)6/h3-4H2,1-2H3",YKYONYBAUNKHLG-UHFFFAOYSA-N,CCCOC(C)=O,-0.7327
3896,B-3897,ethyl formate,"InChI=1S/C3H6O2/c1-2-5-3-4/h3H,2H2,1H3",WBJINCZRORDGAQ-UHFFFAOYSA-N,CCOC=O,0.0758
3897,B-3898,methyl decanoate,"InChI=1S/C11H22O2/c1-3-4-5-6-7-8-9-10-11(12)13-2/h3-10H2,1-2H3",YRHYCMZPEVDGFQ-UHFFFAOYSA-N,CCCCCCCCCC(=O)OC,-4.6268
3898,B-3899,propyl formate,"InChI=1S/C4H8O2/c1-2-3-6-4-5/h4H,2-3H2,1H3",KFNNIILCVOLYIR-UHFFFAOYSA-N,CCCOC=O,-0.6026
3899,B-3900,"p-anisic acid, methyl ester","InChI=1S/C9H10O3/c1-11-8-5-3-7(4-6-8)9(10)12-2/h3-6H,1-2H3",DDIZAANNODHTRB-UHFFFAOYSA-N,COC(=O)c1ccc(OC)cc1,-2.4124
3900,B-3901,diethyl succinate,"InChI=1S/C8H14O4/c1-3-11-7(9)5-6-8(10)12-4-2/h3-6H2,1-2H3",DKMROQRQHGEIOW-UHFFFAOYSA-N,CCOC(=O)CCC(=O)OCC,-0.96
3901,B-3902,n-butyl acetate,"InChI=1S/C6H12O2/c1-3-4-5-8-6(2)7/h3-5H2,1-2H3",DKPFZGUDAPQIHT-UHFFFAOYSA-N,CCCCOC(C)=O,-1.1408
3902,B-3903,dimethyl phthalate,"InChI=1S/C10H10O4/c1-13-9(11)7-5-3-4-6-8(7)10(12)14-2/h3-6H,1-2H3",NIQCNGHVCWTJSM-UHFFFAOYSA-N,COC(=O)c1ccccc1C(=O)OC,-1.6862
3903,B-3904,dipropyl phthalate,"InChI=1S/C14H18O4/c1-3-9-17-13(15)11-7-5-6-8-12(11)14(16)18-10-4-2/h5-8H,3-4,9-10H2,1-2H3",MQHNKCZKNAJROC-UHFFFAOYSA-N,CCCOC(=O)c1ccccc1C(=O)OCCC,-3.365
3904,B-3905,diallylphthalate,"InChI=1S/C14H14O4/c1-3-9-17-13(15)11-7-5-6-8-12(11)14(16)18-10-4-2/h3-8H,1-2,9-10H2",QUDWYFHPNIMBFC-UHFFFAOYSA-N,C=CCOC(=O)c1ccccc1C(=O)OCC=C,-3.1313
3905,B-3906,butyl benzoate,"InChI=1S/C11H14O2/c1-2-3-9-13-11(12)10-7-5-4-6-8-10/h4-8H,2-3,9H2,1H3",XSIFPSYPOVKYCO-UHFFFAOYSA-N,CCCCOC(=O)c1ccccc1,-3.4801
3906,B-3907,benzyl acetate,"InChI=1S/C9H10O2/c1-8(10)11-7-9-5-3-2-4-6-9/h2-6H,7H2,1H3",QUKGYYKBILRGFE-UHFFFAOYSA-N,CC(=O)OCc1ccccc1,-1.6853
3907,B-3908,ethyl acrylate,"InChI=1S/C5H8O2/c1-3-5(6)7-4-2/h3H,1,4H2,2H3",JIGUQPWFLRLWPJ-UHFFFAOYSA-N,CCOC(=O)C=C,-0.8244
3908,B-3909,butyl acrylate,"InChI=1S/C7H12O2/c1-3-5-6-9-7(8)4-2/h4H,2-3,5-6H2,1H3",CQEYYJKEWSMYFG-UHFFFAOYSA-N,CCCCOC(=O)C=C,-1.8068
3909,B-3910,ethyl acetate,"InChI=1S/C4H8O2/c1-3-6-4(2)5/h3H2,1-2H3",XEKOWRVHYACXOJ-UHFFFAOYSA-N,CCOC(C)=O,-0.0419
3910,B-3911,acetoacetic ester,"InChI=1S/C6H10O3/c1-3-9-6(8)4-5(2)7/h3-4H2,1-2H3",XYIBRDXRRQCHLP-UHFFFAOYSA-N,CCOC(=O)CC(C)=O,-0.073
3911,B-3912,methyl propionate,"InChI=1S/C4H8O2/c1-3-4(5)6-2/h3H2,1-2H3",RJUFJBKOKNCXHH-UHFFFAOYSA-N,CCC(=O)OC,-0.1498
3912,B-3913,t-butyl methacrylate,"InChI=1S/C8H14O2/c1-6(2)7(9)10-8(3,4)5/h1H2,2-5H3",SJMYWORNLPSJQO-UHFFFAOYSA-N,CC(=C)C(=O)OC(C)(C)C,-2.1529
3913,B-3914,di-i-propyl phthalate,"InChI=1S/C14H18O4/c1-9(2)17-13(15)11-7-5-6-8-12(11)14(16)18-10(3)4/h5-10H,1-4H3",QWDBCIAVABMJPP-UHFFFAOYSA-N,CC(C)OC(=O)c1ccccc1C(=O)OC(C)C,-2.8773
3914,B-3915,2-hydroxyethyl methacrylate,"InChI=1S/C6H10O3/c1-5(2)6(8)9-4-3-7/h7H,1,3-4H2,2H3",WOBHKFSMXKNTIM-UHFFFAOYSA-N,CC(=C)C(=O)OCCO,-0.1144
3915,B-3916,"ethanol, 2-bromo-, acetate","InChI=1S/C4H7BrO2/c1-4(6)7-3-2-5/h2-3H2,1H3",RGHQKFQZGLKBCF-UHFFFAOYSA-N,CC(=O)OCCBr,-0.6737
3916,B-3917,methyl nonanoate,"InChI=1S/C10H20O2/c1-3-4-5-6-7-8-9-10(11)12-2/h3-9H2,1-2H3",IJXHLVMUNBOGRR-UHFFFAOYSA-N,CCCCCCCCC(=O)OC,-3.8764
3917,B-3918,2-butanone,"InChI=1S/C4H8O/c1-3-4(2)5/h3H2,1-2H3",ZWEHNKRNPOVVGH-UHFFFAOYSA-N,CCC(C)=O,0.4903
3918,B-3919,anthraquinone,InChI=1S/C14H8O2/c15-13-9-5-1-2-6-10(9)14(16)12-8-4-3-7-11(12)13/h1-8H,RZVHIXYEVGDQDX-UHFFFAOYSA-N,O=C1c2ccccc2C(=O)c3ccccc13,-5.1882
3919,B-3920,propiophenone,"InChI=1S/C9H10O/c1-2-9(10)8-6-4-3-5-7-8/h3-7H,2H2,1H3",KRIOVPPHQSLHCZ-UHFFFAOYSA-N,CCC(=O)c1ccccc1,-1.8267
3920,B-3921,3-pentanone,"InChI=1S/C5H10O/c1-3-5(6)4-2/h3-4H2,1-2H3",FDPIMTJIUBPUKL-UHFFFAOYSA-N,CCC(=O)CC,-0.253
3921,B-3922,acetophenone,"InChI=1S/C8H8O/c1-7(9)8-5-3-2-4-6-8/h2-6H,1H3",KWOLFJPFCHCOCG-UHFFFAOYSA-N,CC(=O)c1ccccc1,-1.2923
3922,B-3923,"2,5-cyclohexadiene-1,4-dione",InChI=1S/C6H4O2/c7-5-1-2-6(8)4-3-5/h1-4H,AZQWKYJCGOJGHM-UHFFFAOYSA-N,O=C1C=CC(=O)C=C1,-0.9885
3923,B-3924,2-pentanone,"InChI=1S/C5H10O/c1-3-4-5(2)6/h3-4H2,1-2H3",XNLICIUVMPYHGG-UHFFFAOYSA-N,CCCC(C)=O,-0.3017
3924,B-3925,4-methyl-2-pentanone,"InChI=1S/C6H12O/c1-5(2)4-6(3)7/h5H,4H2,1-3H3",NTIZESTWPVYFNL-UHFFFAOYSA-N,CC(C)CC(C)=O,-0.7219
3925,B-3926,cyclohexanone,InChI=1S/C6H10O/c7-6-4-2-1-3-5-6/h1-5H2,JHIVVAPYMSGYDF-UHFFFAOYSA-N,O=C1CCCCC1,-0.594
3926,B-3927,5-methyl-2-hexanone,"InChI=1S/C7H14O/c1-6(2)4-5-7(3)8/h6H,4-5H2,1-3H3",FFWSICBKRCICMR-UHFFFAOYSA-N,CC(C)CCC(C)=O,-1.3252
3927,B-3928,2-heptanone,"InChI=1S/C7H14O/c1-3-4-5-6-7(2)8/h3-6H2,1-2H3",CATSNJVOTSVZJV-UHFFFAOYSA-N,CCCCCC(C)=O,-1.4242
3928,B-3929,2-octanone,"InChI=1S/C8H16O/c1-3-4-5-6-7-8(2)9/h3-7H2,1-2H3",ZPVFWPFBNIEHGJ-UHFFFAOYSA-N,CCCCCCC(C)=O,-2.1537
3929,B-3930,benzophenone,InChI=1S/C13H10O/c14-13(11-7-3-1-4-8-11)12-9-5-2-6-10-12/h1-10H,RWCCWEUUXYIKHB-UHFFFAOYSA-N,O=C(c1ccccc1)c2ccccc2,-3.1239
3930,B-3931,3-methyl-2-butanone,"InChI=1S/C5H10O/c1-4(2)5(3)6/h4H,1-3H3",SYBYTAAJFKOIEJ-UHFFFAOYSA-N,CC(C)C(C)=O,-0.1513
3931,B-3932,2-hexanone,"InChI=1S/C6H12O/c1-3-4-5-6(2)7/h3-5H2,1-2H3",QQZOPKMRPOGIEB-UHFFFAOYSA-N,CCCCC(C)=O,-0.7577
3932,B-3933,2-decanone,"InChI=1S/C10H20O/c1-3-4-5-6-7-8-9-10(2)11/h3-9H2,1-2H3",ZAJNGDIORYACQU-UHFFFAOYSA-N,CCCCCCCCC(C)=O,-3.3085
3933,B-3934,2-nonanone,"InChI=1S/C9H18O/c1-3-4-5-6-7-8-9(2)10/h3-8H2,1-2H3",VKCYHJWLYTUGCC-UHFFFAOYSA-N,CCCCCCCC(C)=O,-2.5836
3934,B-3935,propylene oxide,"InChI=1S/C3H6O/c1-3-2-4-3/h3H,2H2,1H3",GOOHAUXETOMSMM-UHFFFAOYSA-N,CC1CO1,1.0068
3935,B-3936,styrene oxide,"InChI=1S/C8H8O/c1-2-4-7(5-3-1)8-6-9-8/h1-5,8H,6H2",AWMVMTVKBNGEAK-UHFFFAOYSA-N,C1OC1c2ccccc2,-1.6026
3936,B-3937,"1-chloro-2,3-epoxypropane","InChI=1S/C3H5ClO/c4-1-3-2-5-3/h3H,1-2H2",BRLQWZUYTZBJKN-UHFFFAOYSA-N,ClCC1CO1,-0.1474
3937,B-3938,"b,b,b-trichloro-t-butanol","InChI=1S/C4H7Cl3O/c1-3(2,8)4(5,6)7/h8H,1-2H3",OSASVXMJTNOKOY-UHFFFAOYSA-N,CC(C)(O)C(Cl)(Cl)Cl,-1.3459999999999999
3938,B-3939,"2,2,2-trichloroethanol","InChI=1S/C2H3Cl3O/c3-2(4,5)1-6/h6H,1H2",KPWDGTGXUYRARH-UHFFFAOYSA-N,OCC(Cl)(Cl)Cl,-0.2537
3939,B-3940,benzonitrile,InChI=1S/C7H5N/c8-6-7-4-2-1-3-5-7/h1-5H,JFDZBHWFFUWGJE-UHFFFAOYSA-N,N#Cc1ccccc1,-1.7123
3940,B-3941,propionitrile,"InChI=1S/C3H5N/c1-2-3-4/h2H2,1H3",FVSKHRXBFJPNKK-UHFFFAOYSA-N,CCC#N,0.2718
3941,B-3942,acrylonitrile,"InChI=1S/C3H3N/c1-2-3-4/h2H,1H2",NLHHRLWOUZZQLW-UHFFFAOYSA-N,C=CC#N,0.1474
3942,B-3943,butyronitrile,"InChI=1S/C4H7N/c1-2-3-4-5/h2-3H2,1H3",KVNRLNFWIYMESJ-UHFFFAOYSA-N,CCCC#N,-0.321
3943,B-3944,adiponitrile,InChI=1S/C6H8N2/c7-5-3-1-2-4-6-8/h1-4H2,BTGRAWJCKBQKAO-UHFFFAOYSA-N,N#CCCCCC#N,-0.1309
3944,B-3945,methacrylonitrile,"InChI=1S/C4H5N/c1-4(2)3-5/h1H2,2H3",GYCMBHHDWRMZGG-UHFFFAOYSA-N,CC(=C)C#N,-0.4218
3945,B-3946,"2,6-dichlorobenzonitrile",InChI=1S/C7H3Cl2N/c8-6-2-1-3-7(9)5(6)4-10/h1-3H,YOYAIZYFCNQIRF-UHFFFAOYSA-N,Clc1cccc(Cl)c1C#N,-3.9803
3946,B-3947,1-butene,"InChI=1S/C4H8/c1-3-4-2/h3H,1,4H2,2H3",VXNZUUAINFGPBY-UHFFFAOYSA-N,CCC=C,-2.4046
3947,B-3948,"1,3-butadiene","InChI=1S/C4H6/c1-3-4-2/h3-4H,1-2H2",KAKZBPTYRLMSJV-UHFFFAOYSA-N,C=CC=C,-1.8668
3948,B-3949,cyclohexene,"InChI=1S/C6H10/c1-2-4-6-5-3-1/h1-2H,3-6H2",HGCIXCUEYOPUTN-UHFFFAOYSA-N,C1CCC=CC1,-2.5862
3949,B-3950,1-octene,"InChI=1S/C8H16/c1-3-5-7-8-6-4-2/h3H,1,4-8H2,2H3",KWKAKUADMBZCLK-UHFFFAOYSA-N,CCCCCCC=C,-4.4373
3950,B-3951,isobutene,"InChI=1S/C4H8/c1-4(2)3/h1H2,2-3H3",VQTUBCCKSQIDNK-UHFFFAOYSA-N,CC(C)=C,-2.3291
3951,B-3952,isononene,"InChI=1S/C9H18/c1-3-5-7-9-8-6-4-2/h3H,1,4-9H2,2H3",JRZJOMJEPLMPRA-UHFFFAOYSA-N,CCCCCCCC=C,-5.052
3952,B-3953,cycloheptatriene,"InChI=1S/C7H8/c1-2-4-6-7-5-3-1/h1-6H,7H2",CHVJITGCYZJHLR-UHFFFAOYSA-N,C1C=CC=CC=C1,-2.1721
3953,B-3954,trans-2-butene,"InChI=1S/C4H8/c1-3-4-2/h3-4H,1-2H3/b4-3-",IAQRGUVFOMOMEM-ARJAWSKDSA-N,C\C=C/C,-1.9302
3954,B-3955,"1,4-pentadiene","InChI=1S/C5H8/c1-3-5-4-2/h3-4H,1-2,5H2",QYZLKGVUSQXAMU-UHFFFAOYSA-N,C=CCC=C,-2.0866
3955,B-3956,1-hexene,"InChI=1S/C6H12/c1-3-5-6-4-2/h3H,1,4-6H2,2H3",LIKMAJRDDDTEIG-UHFFFAOYSA-N,CCCCC=C,-3.2261
3956,B-3957,"1,5-hexadiene","InChI=1S/C6H10/c1-3-5-6-4-2/h3-4H,1-2,5-6H2",PYGSKMBEVAICCR-UHFFFAOYSA-N,C=CCCC=C,-2.6867
3957,B-3958,1-heptene,"InChI=1S/C7H14/c1-3-5-7-6-4-2/h3H,1,4-7H2,2H3",ZGEGCLOFRBLKSE-UHFFFAOYSA-N,CCCCCC=C,-3.7319999999999998
3958,B-3959,cis-2-butene,"InChI=1S/C4H8/c1-3-4-2/h3-4H,1-2H3/b4-3+",IAQRGUVFOMOMEM-ONEGZZNKSA-N,C\C=C\C,-2.0406
3959,B-3960,"1,4-cyclohexadiene","InChI=1S/C6H8/c1-2-4-6-5-3-1/h1-2,5-6H,3-4H2",UVJHQYIOXKWHFD-UHFFFAOYSA-N,C1C=CCC=C1,-2.0587
3960,B-3961,3-methylindole,"InChI=1S/C9H9N/c1-7-6-10-9-5-3-2-4-8(7)9/h2-6,10H,1H3",ZFRKQXVRDFCRJG-UHFFFAOYSA-N,Cc1c[nH]c2ccccc12,-2.4206
3961,B-3962,phenothiazine,"InChI=1S/C12H9NS/c1-3-7-11-9(5-1)13-10-6-2-4-8-12(10)14-11/h1-8,13H",WJFKNYWRSNBZNX-UHFFFAOYSA-N,N1c2ccccc2Sc3ccccc13,-5.0981
3962,B-3963,1h-benzotriazole,"InChI=1S/C6H5N3/c1-2-4-6-5(3-1)7-9-8-6/h1-4H,(H,7,8,9)",QRUDEWIWKLJBPS-UHFFFAOYSA-N,[nH]1nc2ccccc2n1,-0.7794
3963,B-3964,benzo(b)thiophene,InChI=1S/C8H6S/c1-2-4-8-7(3-1)5-6-9-8/h1-6H,FCEHBMOGCRZNNI-UHFFFAOYSA-N,s1ccc2ccccc12,-3.0138
3964,B-3965,benzothiazole,InChI=1S/C7H5NS/c1-2-4-7-6(3-1)8-5-9-7/h1-5H,IOJUPLGTWVMSFF-UHFFFAOYSA-N,s1cnc2ccccc12,-1.4975
3965,B-3966,pyrrole,InChI=1S/C4H5N/c1-2-4-5-3-1/h1-5H,KAESVJOAVNADME-UHFFFAOYSA-N,[nH]1cccc1,-0.1734
3966,B-3967,furan,InChI=1S/C4H4O/c1-2-4-5-3-1/h1-4H,YLQBMQCUIZJEEH-UHFFFAOYSA-N,o1cccc1,-0.833
3967,B-3968,thiophene,InChI=1S/C4H4S/c1-2-4-5-3-1/h1-4H,YTPLMLYBLZKORZ-UHFFFAOYSA-N,s1cccc1,-1.4464
3968,B-3969,indole,"InChI=1S/C8H7N/c1-2-4-8-7(3-1)5-6-9-8/h1-6,9H",SIKJAQJRHWYJAI-UHFFFAOYSA-N,[nH]1ccc2ccccc12,-1.5173
3969,B-3970,2-mercaptobenzothiazole,"InChI=1S/C7H5NS2/c9-7-8-5-3-1-2-4-6(5)10-7/h1-4H,(H,8,9)",YXIWHUQXZSMYRE-UHFFFAOYSA-N,S=C1Nc2ccccc2S1,-3.182
3970,B-3971,indazole,"InChI=1S/C7H6N2/c1-2-4-7-6(3-1)5-8-9-7/h1-5H,(H,8,9)",BAXOFTOLAUCFNW-UHFFFAOYSA-N,[nH]1ncc2ccccc12,-2.1554
3971,B-3972,benzoxazole,InChI=1S/C7H5NO/c1-2-4-7-6(3-1)8-5-9-7/h1-5H,BCMCBBGGLRIHSE-UHFFFAOYSA-N,o1cnc2ccccc12,-1.1548
3972,B-3973,indane,"InChI=1S/C9H10/c1-2-5-9-7-3-6-8(9)4-1/h1-2,4-5H,3,6-7H2",PQNFLJBBNBOBRQ-UHFFFAOYSA-N,C1Cc2ccccc2C1,-3.0351
3973,B-3974,2-methylfuran,"InChI=1S/C5H6O/c1-5-3-2-4-6-5/h2-4H,1H3",VQKFNUFAXTZWDK-UHFFFAOYSA-N,Cc1occc1,-1.4372
3974,B-3975,2-(methoxymethyl)-5-no2 furan,"InChI=1S/C6H7NO4/c1-10-4-5-2-3-6(11-5)7(8)9/h2-3H,4H2,1H3",JXUMCVDPMJWGSI-UHFFFAOYSA-N,COCc1oc(cc1)[N+]([O-])=O,-1.1548
3975,B-3976,2-methylbenaimidazole,"InChI=1S/C8H8N2/c1-6-9-7-4-2-3-5-8(7)10-6/h2-5H,1H3,(H,9,10)",LDZYRENCLPUXAX-UHFFFAOYSA-N,Cc1[nH]c2ccccc2n1,-1.9598
3976,B-3977,2-methylthiobenzothiazole,"InChI=1S/C8H7NS2/c1-10-8-9-6-4-2-3-5-7(6)11-8/h2-5H,1H3",UTBVIMLZIRIFFR-UHFFFAOYSA-N,CSc1sc2ccccc2n1,-3.1614
3977,B-3978,3-methylthiophene,"InChI=1S/C5H6S/c1-5-2-3-6-4-5/h2-4H,1H3",QENGPZGAWFQWCZ-UHFFFAOYSA-N,Cc1cscc1,-2.3899
3978,B-3979,2-ethylthiophene,"InChI=1S/C6H8S/c1-2-6-4-3-5-7-6/h3-5H,2H2,1H3",JCCCMAAJYSNBPR-UHFFFAOYSA-N,CCc1sccc1,-2.5846
3979,B-3980,thiourea,"InChI=1S/CH4N2S/c2-1(3)4/h(H4,2,3,4)",UMGDCJDMYOKAJW-UHFFFAOYSA-N,NC(N)=S,0.2708
3980,B-3981,ethylenethiourea,"InChI=1S/C3H6N2S/c6-3-4-1-2-5-3/h1-2H2,(H2,4,5,6)",PDQAZBWRQCGBEV-UHFFFAOYSA-N,S=C1NCCN1,-0.7083
3981,B-3982,"1,1-dichloroethene",InChI=1S/C2H2Cl2/c1-2(3)4/h1H2,LGXVIGDEPROXKC-UHFFFAOYSA-N,ClC(Cl)=C,-1.6343
3982,B-3983,"1,1-difluoroethene",InChI=1S/C2H2F2/c1-2(3)4/h1H2,BQCIDUSAKPWEOX-UHFFFAOYSA-N,FC(F)=C,-0.7061
3983,B-3984,hexachlorocyclopentadiene,"InChI=1S/C5Cl6/c6-1-2(7)4(9)5(10,11)3(1)8",VUNCWTMEJYMOOR-UHFFFAOYSA-N,ClC1=C(Cl)C(Cl)(Cl)C(=C1Cl)Cl,-5.1805
3984,B-3985,trichloroethene,InChI=1S/C2HCl3/c3-1-2(4)5/h1H,XSTXAVWGXDQKEL-UHFFFAOYSA-N,ClC=C(Cl)Cl,-2.0772
3985,B-3986,hexachlorobutadiene,InChI=1S/C4Cl6/c5-1(3(7)8)2(6)4(9)10,RWNKSTSCBHKHTB-UHFFFAOYSA-N,ClC(Cl)=C(Cl)C(Cl)=C(Cl)Cl,-4.9111
3986,B-3987,3-bromo-1-propene,"InChI=1S/C3H5Br/c1-2-3-4/h2H,1,3H2",BHELZAPQIKSEDF-UHFFFAOYSA-N,BrCC=C,-1.4995
3987,B-3988,tetrachloroethene,InChI=1S/C2Cl4/c3-1(4)2(5)6,CYTYCFOTNPOANT-UHFFFAOYSA-N,ClC(Cl)=C(Cl)Cl,-2.9186
3988,B-3989,"1,2-dichloroethene (cis)",InChI=1S/C2H2Cl2/c3-1-2-4/h1-2H/b2-1-,KFUSEUYYWQURPO-UPHRSURJSA-N,Cl\C=C/Cl,-1.4424
3989,B-3990,"1,2-dichloroethene (trans)",InChI=1S/C2H2Cl2/c3-1-2-4/h1-2H/b2-1+,KFUSEUYYWQURPO-OWOJBTEDSA-N,Cl\C=C\Cl,-1.1872
3990,B-3991,"1,2-dichloroethylene",InChI=1S/C2H2Cl2/c3-1-2-4/h1-2H/b2-1+,KFUSEUYYWQURPO-OWOJBTEDSA-N,Cl\C=C\Cl,-1.4424
3991,B-3992,4-bromo-1-butene,"InChI=1S/C4H7Br/c1-2-3-4-5/h2H,1,3-4H2",DMAYBPBPEUFIHJ-UHFFFAOYSA-N,BrCCC=C,-2.2473
3992,B-3993,"1,2-dibromoethene (cis)",InChI=1S/C2H2Br2/c3-1-2-4/h1-2H/b2-1-,UWTUEMKLYAGTNQ-UPHRSURJSA-N,Br\C=C/Br,-1.3193
3993,B-3994,1-nitronaphthalene,InChI=1S/C10H7NO2/c12-11(13)10-7-3-5-8-4-1-2-6-9(8)10/h1-7H,RJKGJBPXVHTNJL-UHFFFAOYSA-N,[O-][N+](=O)c1cccc2ccccc12,-4.2756
3994,B-3995,1-methylnaphthalene,"InChI=1S/C11H10/c1-9-5-4-7-10-6-2-3-8-11(9)10/h2-8H,1H3",QPUYECUOLPXSFR-UHFFFAOYSA-N,Cc1cccc2ccccc12,-3.7413