,ID,Name,InChI,InChIKey,SMILES,Solubility
4709,C-60,azelaic  acid;  nonanedioic  acid,"InChI=1S/C9H16O4/c10-8(11)6-4-2-1-3-5-7-9(12)13/h1-7H2,(H,10,11)(H,12,13)",BDJRBEYXGGNYIS-UHFFFAOYSA-N,OC(=O)CCCCCCCC(O)=O,-2.02
4710,C-61,thiram;  tetramethylthiuram  disulfide,InChI=1S/C6H12N2S4/c1-7(2)5(9)11-12-6(10)8(3)4/h1-4H3,KUAZQDVKQLNFPE-UHFFFAOYSA-N,CN(C)C(=S)SSC(=S)N(C)C,-3.9
4711,C-62,diallate,"InChI=1S/C10H17Cl2NOS/c1-7(2)13(8(3)4)10(14)15-6-9(12)5-11/h5,7-8H,6H2,1-4H3/b9-5-",SPANOECCGNXGNR-UITAMQMPSA-N,CC(C)N(C(C)C)C(=O)SC\C(Cl)=C\Cl,-4.29
4712,C-63,phenol,"InChI=1S/C6H6O/c7-6-4-2-1-3-5-6/h1-5,7H",ISWSIDIOOBJBQZ-UHFFFAOYSA-N,OC1=CC=CC=C1,-0.04
4713,C-64,methyl  hexadecanoate;  methyl  palmitate,"InChI=1S/C17H34O2/c1-3-4-5-6-7-8-9-10-11-12-13-14-15-16-17(18)19-2/h3-16H2,1-2H3",FLIACVVOZYBSBS-UHFFFAOYSA-N,CCCCCCCCCCCCCCCC(=O)OC,-7.83
4714,C-65,l-glutamine,"InChI=1S/C5H10N2O3/c6-3(5(9)10)1-2-4(7)8/h3H,1-2,6H2,(H2,7,8)(H,9,10)",ZDXPYRJPNDTMRX-UHFFFAOYSA-N,NC(CCC(N)=O)C(O)=O,-0.54
4715,C-66,l-glutamic  acid,"InChI=1S/C5H9NO4/c6-3(5(9)10)1-2-4(7)8/h3H,1-2,6H2,(H,7,8)(H,9,10)",WHUUTDBJXJRKMK-UHFFFAOYSA-N,NC(CCC(O)=O)C(O)=O,-1.23
4716,C-67,aldicarb,"InChI=1S/C7H14N2O2S/c1-7(2,12-4)5-9-11-6(10)8-3/h5H,1-4H3,(H,8,10)/b9-5+",QGLZXHRNAYXIBU-WEVVVXLNSA-N,CNC(=O)O\N=C\C(C)(C)SC,-1.39
4717,C-68,beta-hexachlorocyclohexane,InChI=1S/C6H6Cl6/c7-1-2(8)4(10)6(12)5(11)3(1)9/h1-6H,JLYXXMFPNIAWKQ-UHFFFAOYSA-N,ClC1C(Cl)C(Cl)C(Cl)C(Cl)C1Cl,-6.08
4718,C-69,"methyprylon;  3,3-diethyl-5-methyl-2,4-piperidinedione","InChI=1S/C10H17NO2/c1-4-10(5-2)8(12)7(3)6-11-9(10)13/h7H,4-6H2,1-3H3,(H,11,13)",SIDLZWOQUZRBRU-UHFFFAOYSA-N,CCC1(CC)C(=O)NCC(C)C1=O,-0.38
4719,C-70,hymexazol;  5-methyl-3(2h)-isoxazolone,"InChI=1S/C4H5NO2/c1-3-2-4(6)5-7-3/h2H,1H3,(H,5,6)",KGVPNLBXJKTABS-UHFFFAOYSA-N,CC1=CC(=O)NO1,-0.07
4720,C-71,"1,3,5-triaza-1,3,5-trinitrocyclohexane",InChI=1S/C3H6N6O6/c10-7(11)4-1-5(8(12)13)3-6(2-4)9(14)15/h1-3H2,XTFIVUDBNACUBN-UHFFFAOYSA-N,[O-][N+](=O)N1CN(CN(C1)[N+]([O-])=O)[N+]([O-])=O,-3.57
4721,C-72,l(+)-arginine,"InChI=1S/C6H14N4O2/c7-4(5(11)12)2-1-3-10-6(8)9/h4H,1-3,7H2,(H,11,12)(H4,8,9,10)",ODKSFYDXXFIFQN-UHFFFAOYSA-N,NC(CCCNC(N)=N)C(O)=O,0.0
4722,C-73,methyl stearate; methyl octadecanoate; octadecanoic acid methyl ester,"InChI=1S/C19H38O2/c1-3-4-5-6-7-8-9-10-11-12-13-14-15-16-17-18-19(20)21-2/h3-18H2,1-2H3",HPEUJPJOZXNMSJ-UHFFFAOYSA-N,CCCCCCCCCCCCCCCCCC(=O)OC,-9.0
4723,C-74,methomyl,"InChI=1S/C5H10N2O2S/c1-4(10-3)7-9-5(8)6-2/h1-3H3,(H,6,8)/b7-4-",UHXUZOCRWCRNSJ-DAXSKMNVSA-N,CNC(=O)O\N=C(\C)SC,-1.21
4724,C-75,isosorbide  dinitrate,"InChI=1S/C6H8N2O8/c9-7(10)15-3-1-13-6-4(16-8(11)12)2-14-5(3)6/h3-6H,1-2H2",MOYKHGMNXAOIAT-UHFFFAOYSA-N,[O-][N+](=O)OC1COC2C(COC12)O[N+]([O-])=O,-2.63
4725,C-76,4-cresol; 4-methylphenol,"InChI=1S/C7H8O/c1-6-2-4-7(8)5-3-6/h2-5,8H,1H3",IWDCLRJOBJJRNH-UHFFFAOYSA-N,CC1=CC=C(O)C=C1,-0.7
4726,C-77,2-cresol;  2-methylphenol,"InChI=1S/C7H8O/c1-6-4-2-3-5-7(6)8/h2-5,8H,1H3",QWVGKYWNOKOFNN-UHFFFAOYSA-N,CC1=C(O)C=CC=C1,-0.64
4727,C-78,triallate,"InChI=1S/C10H16Cl3NOS/c1-6(2)14(7(3)4)10(15)16-5-8(11)9(12)13/h6-7H,5H2,1-4H3",MWBPRDONLNQCFV-UHFFFAOYSA-N,CC(C)N(C(C)C)C(=O)SCC(Cl)=C(Cl)Cl,-4.88
4728,C-79,"5,5-dimethylbarbituric  acid","InChI=1S/C6H8N2O3/c1-6(2)3(9)7-5(11)8-4(6)10/h1-2H3,(H2,7,8,9,10,11)",LAOZSCRCYVBSJA-UHFFFAOYSA-N,CC1(C)C(=O)NC(=O)NC1=O,-1.74
4729,C-80,"1,4-diaminobenzene;  1,4-phenylenediamine","InChI=1S/C6H8N2/c7-5-1-2-6(8)4-3-5/h1-4H,7-8H2",CBCKQZAAMUWICA-UHFFFAOYSA-N,NC1=CC=C(N)C=C1,-0.38
4730,C-81,"1,3-phenylenediamine;  1,3-diaminobenzene","InChI=1S/C6H8N2/c7-5-2-1-3-6(8)4-5/h1-4H,7-8H2",WZCQRUWWHSTZEM-UHFFFAOYSA-N,NC1=CC(=CC=C1)N,0.51
4731,C-82,"1,2-diaminobenzene;  1,2-phenylenediamine","InChI=1S/C6H8N2/c7-5-3-1-2-4-6(5)8/h1-4H,7-8H2",GEYOCULIXLDCMW-UHFFFAOYSA-N,NC1=C(N)C=CC=C1,-0.42
4732,C-83,4-methylbenzyl  alcohol,"InChI=1S/C8H10O/c1-7-2-4-8(6-9)5-3-7/h2-5,9H,6H2,1H3",KMTDMTZBNYGUNX-UHFFFAOYSA-N,CC1=CC=C(CO)C=C1,-1.2
4733,C-84,hexazinone,"InChI=1S/C12H20N4O2/c1-14(2)10-13-11(17)16(12(18)15(10)3)9-7-5-4-6-8-9/h9H,4-8H2,1-3H3",CAWXEEYDBZRFPE-UHFFFAOYSA-N,CN(C)C1=NC(=O)N(C2CCCCC2)C(=O)N1C,0.12
4734,C-85,"daminozide;  succinic acid 2,2-dimethylhydrazide","InChI=1S/C6H12N2O3/c1-8(2)7-5(9)3-4-6(10)11/h3-4H2,1-2H3,(H,7,9)(H,10,11)",NOQGZXFMHARMLW-UHFFFAOYSA-N,CN(C)NC(=O)CCC(O)=O,-0.2
4735,C-86,"spiro-5,5-dimethylenebarbituric  acid","InChI=1S/C6H6N2O3/c9-3-6(1-2-6)4(10)8-5(11)7-3/h1-2H2,(H2,7,8,9,10,11)",PQVZDTWRGIHYCU-UHFFFAOYSA-N,O=C1NC(=O)C2(CC2)C(=O)N1,-1.89
4736,C-87,"hydroquinone;  1,4-benzenediol;  1,4-dihydroxybenzene","InChI=1S/C6H6O2/c7-5-1-2-6(8)4-3-5/h1-4,7-8H",QIGBRXMKCJKVMJ-UHFFFAOYSA-N,OC1=CC=C(O)C=C1,-0.48
4737,C-88,1-cyclohexyl-3-decylurea,"InChI=1S/C17H34N2O/c1-2-3-4-5-6-7-8-12-15-18-17(20)19-16-13-10-9-11-14-16/h16H,2-15H2,1H3,(H2,18,19,20)",LPXYBLIRYGCMPQ-UHFFFAOYSA-N,CCCCCCCCCCNC(=O)NC1CCCCC1,-2.81
4738,C-89,"resorcinol;  1,3-benzenediol;  1,3-dihydroxybenzene","InChI=1S/C6H6O2/c7-5-2-1-3-6(8)4-5/h1-4,7-8H",GHMLBKRAJCXXBS-UHFFFAOYSA-N,OC1=CC(=CC=C1)O,0.78
4739,C-90,"catechol;  1,2-benzenediol;  pyrocatechol;  1,2-dihydroxybenzene","InChI=1S/C6H6O2/c7-5-3-1-2-4-6(5)8/h1-4,7-8H",YCIMNLLNPGFGHC-UHFFFAOYSA-N,OC1=C(O)C=CC=C1,0.62
4740,C-91,4-ethylphenol,"InChI=1S/C8H10O/c1-2-7-3-5-8(9)6-4-7/h3-6,9H,2H2,1H3",HXDOZKJGKXYMEW-UHFFFAOYSA-N,CCC1=CC=C(O)C=C1,-1.4
4741,C-92,disulfiram,"InChI=1S/C10H20N2S4/c1-5-11(6-2)9(13)15-16-10(14)12(7-3)8-4/h5-8H2,1-4H3",AUZONCFQVSMFAP-UHFFFAOYSA-N,CCN(CC)C(=S)SSC(=S)N(CC)CC,-3.0
4742,C-93,"meprobamate;  2,2-di(carbamoyloxymethyl)pentane","InChI=1S/C9H18N2O4/c1-3-4-9(2,5-14-7(10)12)6-15-8(11)13/h3-6H2,1-2H3,(H2,10,12)(H2,11,13)",NPPQSCRMBWNHMW-UHFFFAOYSA-N,CCCC(C)(COC(N)=O)COC(N)=O,-1.81
4743,C-94,5-ethyl-5-methylbarbituric  acid,"InChI=1S/C7H10N2O3/c1-3-7(2)4(10)8-6(12)9-5(7)11/h3H2,1-2H3,(H2,8,9,10,11,12)",RCFRTWDBBMGLGK-UHFFFAOYSA-N,CCC1(C)C(=O)NC(=O)NC1=O,-1.23
4744,C-95,cytosine,"InChI=1S/C4H5N3O/c5-3-1-2-6-4(8)7-3/h1-2H,(H3,5,6,7,8)",OPTASPLRGRRNAP-UHFFFAOYSA-N,NC1=NC(=O)NC=C1,-1.16
4745,C-96,"3,5-dimethylphenol","InChI=1S/C8H10O/c1-6-3-7(2)5-8(9)4-6/h3-5,9H,1-2H3",TUAMRELNJMMDMT-UHFFFAOYSA-N,CC1=CC(=CC(=C1)O)C,-1.4
4746,C-97,"3,4-dimethylphenol","InChI=1S/C8H10O/c1-6-3-4-8(9)5-7(6)2/h3-5,9H,1-2H3",YCOXTKKNXUZSKD-UHFFFAOYSA-N,CC1=C(C)C=C(O)C=C1,-1.41
4747,C-98,"2,5-dimethylphenol","InChI=1S/C8H10O/c1-6-3-4-7(2)8(9)5-6/h3-5,9H,1-2H3",NKTOLZVEWDHZMU-UHFFFAOYSA-N,CC1=CC(=C(C)C=C1)O,-1.54
4748,C-99,2-hydroxymethylphenol;  2-hydroxybenzyl  alcohol;  salicyl  alcohol,"InChI=1S/C7H8O2/c8-5-6-3-1-2-4-7(6)9/h1-4,8-9H,5H2",CQRYARSYNCAZFO-UHFFFAOYSA-N,OCC1=C(O)C=CC=C1,-0.29
4749,C-100,"2,3-dimethylphenol","InChI=1S/C8H10O/c1-6-4-3-5-8(9)7(6)2/h3-5,9H,1-2H3",QWBBPBRQALCEIZ-UHFFFAOYSA-N,CC1=C(C)C(=CC=C1)O,-1.43
4750,C-101,"2,6-dimethylphenol","InChI=1S/C8H10O/c1-6-4-3-5-7(2)8(6)9/h3-5,9H,1-2H3",NXXYKOUNUYWIHA-UHFFFAOYSA-N,CC1=CC=CC(=C1O)C,-1.31
4751,C-102,"1,2-dihydropyridazine-3,6-dione","InChI=1S/C4H4N2O2/c7-3-1-2-4(8)6-5-3/h1-2H,(H,5,7)(H,6,8)",BGRDGMRNKXEXQD-UHFFFAOYSA-N,O=C1NNC(=O)C=C1,-1.59
4752,C-103,"uracil;  2,4(1h,3h)-pyrimidinedione","InChI=1S/C4H4N2O2/c7-3-1-2-5-4(8)6-3/h1-2H,(H2,5,6,7,8)",ISAKRJDGNUQOIC-UHFFFAOYSA-N,O=C1NC=CC(=O)N1,-1.5
4753,C-104,"spiro-5,5-trimethylenebarbituric acid;  6,8-diazaspiro[3.5]nonane-5,7,9-trione","InChI=1S/C7H8N2O3/c10-4-7(2-1-3-7)5(11)9-6(12)8-4/h1-3H2,(H2,8,9,10,11,12)",VQDXQNNYGSEHPU-UHFFFAOYSA-N,O=C1NC(=O)C2(CCC2)C(=O)N1,-1.66
4754,C-105,"1,2,4,5-tetramethylbenzene;  durene","InChI=1S/C10H14/c1-7-5-9(3)10(4)6-8(7)2/h5-6H,1-4H3",SQNZJJAZBFDUTD-UHFFFAOYSA-N,CC1=CC(=C(C)C=C1C)C,-3.84
4755,C-106,benzamide,"InChI=1S/C7H7NO/c8-7(9)6-4-2-1-3-5-6/h1-5H,(H2,8,9)",KXDAEFPNCMNJSK-UHFFFAOYSA-N,NC(=O)C1=CC=CC=C1,-0.95
4756,C-107,"1,4-dichlorobenzene",InChI=1S/C6H4Cl2/c7-5-1-2-6(8)4-3-5/h1-4H,OCJBOOLMMGQPQU-UHFFFAOYSA-N,ClC1=CC=C(Cl)C=C1,-3.35
4757,C-108,benzoic  acid,"InChI=1S/C7H6O2/c8-7(9)6-4-2-1-3-5-6/h1-5H,(H,8,9)",WPYMKLBDIGXBTP-UHFFFAOYSA-N,OC(=O)C1=CC=CC=C1,-1.55
4758,C-109,"5,5-diethylbarbituric  acid;  veronal;  barbital;  barbitone","InChI=1S/C8H12N2O3/c1-3-8(4-2)5(11)9-7(13)10-6(8)12/h3-4H2,1-2H3,(H2,9,10,11,12,13)",FTOAOBMCPZCFFF-UHFFFAOYSA-N,CCC1(CC)C(=O)NC(=O)NC1=O,-1.42
4759,C-110,4-hydroxybenzaldehyde,"InChI=1S/C7H6O2/c8-5-6-1-3-7(9)4-2-6/h1-5,9H",RGHHSNMVTDWUBI-UHFFFAOYSA-N,OC1=CC=C(C=O)C=C1,-1.16
4760,C-111,5-allyl-5-methylbarbituric  acid;  5-allyl-5-methylbarbiturate,"InChI=1S/C8H10N2O3/c1-3-4-8(2)5(11)9-7(13)10-6(8)12/h3H,1,4H2,2H3,(H2,9,10,11,12,13)",WMSQREUDUHHDDC-UHFFFAOYSA-N,CC1(CC=C)C(=O)NC(=O)NC1=O,-1.16
4761,C-112,3-hydroxybenzaldehyde,"InChI=1S/C7H6O2/c8-5-6-2-1-3-7(9)4-6/h1-5,9H",IAVREABSGIHHMO-UHFFFAOYSA-N,OC1=CC=CC(=C1)C=O,-1.23
4762,C-113,nicotinamide,"InChI=1S/C6H6N2O/c7-6(9)5-2-1-3-8-4-5/h1-4H,(H2,7,9)",DFPAKSUCGFBDDF-UHFFFAOYSA-N,NC(=O)C1=CC=CN=C1,0.61
4763,C-114,citric acid,"InChI=1S/C6H8O7/c7-3(8)1-6(13,5(11)12)2-4(9)10/h13H,1-2H2,(H,7,8)(H,9,10)(H,11,12)",KRKNYBCHXYNGOX-UHFFFAOYSA-N,OC(=O)CC(O)(CC(O)=O)C(O)=O,0.51
4764,C-115,nicotinic  acid;  niacin,"InChI=1S/C6H5NO2/c8-6(9)5-2-1-3-7-4-5/h1-4H,(H,8,9)",PVNIIMVLHYAWGP-UHFFFAOYSA-N,OC(=O)C1=CN=CC=C1,-0.85
4765,C-116,pyrazinamide;   2-carbamoylpyrazine;  pyrazin-2-carboxamide,"InChI=1S/C5H5N3O/c6-5(9)4-3-7-1-2-8-4/h1-3H,(H2,6,9)",IPEHBUMCGVEMRF-UHFFFAOYSA-N,NC(=O)C1=CN=CC=N1,-0.91
4766,C-117,"2,3,5-trimethylphenol","InChI=1S/C9H12O/c1-6-4-7(2)8(3)9(10)5-6/h4-5,10H,1-3H3",OGRAOKJKVGDSFR-UHFFFAOYSA-N,CC1=CC(=C(C)C(=C1)C)O,-2.25
4767,C-118,"2,4,6-trimethylphenol","InChI=1S/C9H12O/c1-6-4-7(2)9(10)8(3)5-6/h4-5,10H,1-3H3",BPRYUXCVCCNUFE-UHFFFAOYSA-N,CC1=CC(=C(O)C(=C1)C)C,-2.06
4768,C-119,4-chloro-2-methylphenol;  4-chloro-2-cresol,"InChI=1S/C7H7ClO/c1-5-4-6(8)2-3-7(5)9/h2-4,9H,1H3",RHPUJHQBPORFGV-UHFFFAOYSA-N,CC1=C(O)C=CC(=C1)Cl,-1.55
4769,C-120,4-chloro-3-methylphenol;  4-chloro-3-cresol,"InChI=1S/C7H7ClO/c1-5-4-6(9)2-3-7(5)8/h2-4,9H,1H3",CFKMVGJGLGKFKI-UHFFFAOYSA-N,CC1=C(Cl)C=CC(=C1)O,-1.46
4770,C-121,thymine;  5-methyluracil,"InChI=1S/C5H6N2O2/c1-3-2-6-5(9)7-4(3)8/h2H,1H3,(H2,6,7,8,9)",RWQNBRDOKXIBIV-UHFFFAOYSA-N,CC1=CNC(=O)NC1=O,-1.52
4771,C-122,"phloroglucinol;  1,3,5-benzenetriol;  1,3,5-trihydroxybenzene","InChI=1S/C6H6O3/c7-4-1-5(8)3-6(9)2-4/h1-3,7-9H",QCDYQQDYXPDABM-UHFFFAOYSA-N,OC1=CC(=CC(=C1)O)O,-1.05
4772,C-123,2-thiouracil,"InChI=1S/C4H4N2OS/c7-3-1-2-5-4(8)6-3/h1-2H,(H2,5,6,7,8)",ZEMGGZBWXRYJHK-UHFFFAOYSA-N,O=C1NC(=S)NC=C1,-2.26
4773,C-124,5-ethyl-5-propylbarbituric  acid,"InChI=1S/C9H14N2O3/c1-3-5-9(4-2)6(12)10-8(14)11-7(9)13/h3-5H2,1-2H3,(H2,10,11,12,13,14)",XIBUBTQSOGWALU-UHFFFAOYSA-N,CCCC1(CC)C(=O)NC(=O)NC1=O,-1.49
4774,C-125,"pyrogallol;  1,2,3-benzenetriol","InChI=1S/C6H6O3/c7-4-2-1-3-5(8)6(4)9/h1-3,7-9H",WQGWDDDVZFFDIG-UHFFFAOYSA-N,OC1=C(O)C(=CC=C1)O,0.7
4775,C-126,4-sec-butylphenol,"InChI=1S/C10H14O/c1-3-8(2)9-4-6-10(11)7-5-9/h4-8,11H,3H2,1-2H3",ZUTYZAFDFLLILI-UHFFFAOYSA-N,CCC(C)C1=CC=C(O)C=C1,-2.19
4776,C-127,probarbital;  5-ethyl-5-isopropylbarbituric  acid,"InChI=1S/C9H14N2O3/c1-4-9(5(2)3)6(12)10-8(14)11-7(9)13/h5H,4H2,1-3H3,(H2,10,11,12,13,14)",HHLXJTDUHFBYAU-UHFFFAOYSA-N,CCC1(C(C)C)C(=O)NC(=O)NC1=O,-2.21
4777,C-128,ethallobarbital;  5-allyl-5-ethylbarbituric  acid,"InChI=1S/C9H12N2O3/c1-3-5-9(4-2)6(12)10-8(14)11-7(9)13/h3H,1,4-5H2,2H3,(H2,10,11,12,13,14)",QPADNTZLUBYNEN-UHFFFAOYSA-N,CCC1(CC=C)C(=O)NC(=O)NC1=O,-1.61
4778,C-129,pentamethylbenzene,"InChI=1S/C11H16/c1-7-6-8(2)10(4)11(5)9(7)3/h6H,1-5H3",BEZDDPMMPIDMGJ-UHFFFAOYSA-N,CC1=C(C)C(=C(C)C(=C1)C)C,-3.98
4779,C-130,acetanilide,"InChI=1S/C8H9NO/c1-7(10)9-8-5-3-2-4-6-8/h2-6H,1H3,(H,9,10)",FZERHIULMFGESH-UHFFFAOYSA-N,CC(=O)NC1=CC=CC=C1,-1.39
4780,C-131,5-fluorouracil,"InChI=1S/C4H3FN2O2/c5-2-1-6-4(9)7-3(2)8/h1H,(H2,6,7,8,9)",GHASVSINZRGABV-UHFFFAOYSA-N,FC1=CNC(=O)NC1=O,-1.04
4781,C-132,"metharbital;  5,5-diethyl-1-methylbarbituric acid","InChI=1S/C9H14N2O3/c1-4-9(5-2)6(12)10-8(14)11(3)7(9)13/h4-5H2,1-3H3,(H,10,12,14)",FWJKNZONDWOGMI-UHFFFAOYSA-N,CCC1(CC)C(=O)NC(=O)N(C)C1=O,-2.1
4782,C-133,"5,5-(spirocyclohexyl)barbituric  acid;  spiro-5,5-pentamethylenebarbituric acid","InChI=1S/C9H12N2O3/c12-6-9(4-2-1-3-5-9)7(13)11-8(14)10-6/h1-5H2,(H2,10,11,12,13,14)",NBLIVIWUPTWDMD-UHFFFAOYSA-N,O=C1NC(=O)C2(CCCCC2)C(=O)N1,-3.06
4783,C-134,ephedrine,"InChI=1S/C10H15NO/c1-8(11-2)10(12)9-6-4-3-5-7-9/h3-8,10-12H,1-2H3",KWGRBVOPPLSCSI-UHFFFAOYSA-N,CNC(C)C(O)C1=CC=CC=C1,-0.47
4784,C-135,phenylacetic  acid,"InChI=1S/C8H8O2/c9-8(10)6-7-4-2-1-3-5-7/h1-5H,6H2,(H,9,10)",WLJVXDMOQOGPHL-UHFFFAOYSA-N,OC(=O)CC1=CC=CC=C1,-0.88
4785,C-136,4-tert-butylphenol,"InChI=1S/C10H14O/c1-10(2,3)8-4-6-9(11)7-5-8/h4-7,11H,1-3H3",QHPQWRBYOIRBIT-UHFFFAOYSA-N,CC(C)(C)C1=CC=C(O)C=C1,-2.41
4786,C-137,4-methylbenzoic acid,"InChI=1S/C8H8O2/c1-6-2-4-7(5-3-6)8(9)10/h2-5H,1H3,(H,9,10)",LPNBBFKOUUSUDB-UHFFFAOYSA-N,CC1=CC=C(C=C1)C(O)=O,-2.53
4787,C-138,3-methylbenzoic acid,"InChI=1S/C8H8O2/c1-6-3-2-4-7(5-6)8(9)10/h2-5H,1H3,(H,9,10)",GPSDUZXPYCFOSQ-UHFFFAOYSA-N,CC1=CC=CC(=C1)C(O)=O,-2.21
4788,C-139,"5,5-diethyl-2-thiobarbituric  acid; thiobarbital","InChI=1S/C8H12N2O2S/c1-3-8(4-2)5(11)9-7(13)10-6(8)12/h3-4H2,1-2H3,(H2,9,10,11,12,13)",QGVNJRROSLYGKF-UHFFFAOYSA-N,CCC1(CC)C(=O)NC(=S)NC1=O,-2.28
4789,C-140,thiophene-3-carboxylic acid;  3-carboxythiophene,"InChI=1S/C5H4O2S/c6-5(7)4-1-2-8-3-4/h1-3H,(H,6,7)",YNVOMSDITJMNET-UHFFFAOYSA-N,OC(=O)C1=CSC=C1,-1.47
4790,C-141,2-methylbenzoic acid,"InChI=1S/C8H8O2/c1-6-4-2-3-5-7(6)8(9)10/h2-5H,1H3,(H,9,10)",ZWLPBLYKEWSWPD-UHFFFAOYSA-N,CC1=C(C=CC=C1)C(O)=O,-2.18
4791,C-142,thymol;  2-isopropyl-5-methylphenol,"InChI=1S/C10H14O/c1-7(2)9-5-4-8(3)6-10(9)11/h4-7,11H,1-3H3",MGSRCZKZVOBKFT-UHFFFAOYSA-N,CC(C)C1=C(O)C=C(C)C=C1,-2.18
4792,C-143,butethal; 5-butyl-5-ethylbarbituric  acid,"InChI=1S/C10H16N2O3/c1-3-5-6-10(4-2)7(13)11-9(15)12-8(10)14/h3-6H2,1-2H3,(H2,11,12,13,14,15)",STDBAQMTJLUMFW-UHFFFAOYSA-N,CCCCC1(CC)C(=O)NC(=O)NC1=O,-1.69
4793,C-144,5-methyl-5-(3-methyl-2-butenyl)barbituric  acid,"InChI=1S/C10H14N2O3/c1-6(2)4-5-10(3)7(13)11-9(15)12-8(10)14/h4H,5H2,1-3H3,(H2,11,12,13,14,15)",CVWHRDJDXCEZGH-UHFFFAOYSA-N,CC(C)=CCC1(C)C(=O)NC(=O)NC1=O,-2.6
4794,C-145,benzyl  carbamate,"InChI=1S/C8H9NO2/c9-8(10)11-6-7-4-2-1-3-5-7/h1-5H,6H2,(H2,9,10)",PUJDIJCNWFYVJX-UHFFFAOYSA-N,NC(=O)OCC1=CC=CC=C1,-0.35
4795,C-146,methidathion,"InChI=1S/C6H11N2O4PS3/c1-10-5-7-8(6(9)16-5)4-15-13(14,11-2)12-3/h4H2,1-3H3",MEBQXILRKZHVCX-UHFFFAOYSA-N,COC1=NN(CS[P](=S)(OC)OC)C(=O)S1,-3.1
4796,C-147,4-bromophenol,"InChI=1S/C6H5BrO/c7-5-1-3-6(8)4-2-5/h1-4,8H",GZFGOTFRPZRKDS-UHFFFAOYSA-N,OC1=CC=C(Br)C=C1,-1.0
4797,C-148,4-fluorobenzoic acid,"InChI=1S/C7H5FO2/c8-6-3-1-5(2-4-6)7(9)10/h1-4H,(H,9,10)",BBYDXOIZLAWGSL-UHFFFAOYSA-N,OC(=O)C1=CC=C(F)C=C1,-2.07
4798,C-149,3-bromophenol,"InChI=1S/C6H5BrO/c7-5-2-1-3-6(8)4-5/h1-4,8H",MNOJRWOWILAHAV-UHFFFAOYSA-N,OC1=CC(=CC=C1)Br,-0.88
4799,C-150,isoniazid;  isonicotinic acid hydrazide;  inh,"InChI=1S/C6H7N3O/c7-9-6(10)5-1-3-8-4-2-5/h1-4H,7H2,(H,9,10)",QRXWMOHMRWLFEY-UHFFFAOYSA-N,NNC(=O)C1=CC=NC=C1,-0.04
4800,C-151,butabarbital;  5-sec-butyl-5-ethylbarbituric acid,"InChI=1S/C10H16N2O3/c1-4-6(3)10(5-2)7(13)11-9(15)12-8(10)14/h6H,4-5H2,1-3H3,(H2,11,12,13,14,15)",ZRIHAIZYIMGOAB-UHFFFAOYSA-N,CCC(C)C1(CC)C(=O)NC(=O)NC1=O,-2.39
4801,C-152,2-fluorobenzoic  acid,"InChI=1S/C7H5FO2/c8-6-4-2-1-3-5(6)7(9)10/h1-4H,(H,9,10)",NSTREUWFTAOOKS-UHFFFAOYSA-N,OC(=O)C1=C(F)C=CC=C1,-1.39
4802,C-153,4-aminobenzoic  acid,"InChI=1S/C7H7NO2/c8-6-3-1-5(2-4-6)7(9)10/h1-4H,8H2,(H,9,10)",ALYNCZNDIQEVRV-UHFFFAOYSA-N,NC1=CC=C(C=C1)C(O)=O,-1.37
4803,C-154,"5,5-diisopropylbarbituric acid","InChI=1S/C10H16N2O3/c1-5(2)10(6(3)4)7(13)11-9(15)12-8(10)14/h5-6H,1-4H3,(H2,11,12,13,14,15)",NSQYIEOSFPLTJA-UHFFFAOYSA-N,CC(C)C1(C(C)C)C(=O)NC(=O)NC1=O,-2.77
4804,C-155,aprobarbital;  5-allyl-5-isopropylbarbituric  acid,"InChI=1S/C10H14N2O3/c1-4-5-10(6(2)3)7(13)11-9(15)12-8(10)14/h4,6H,1,5H2,2-3H3,(H2,11,12,13,14,15)",UORJNBVJVRLXMQ-UHFFFAOYSA-N,CC(C)C1(CC=C)C(=O)NC(=O)NC1=O,-1.71
4805,C-156,"allobarbital; 5,5-diallylbarbituric  acid","InChI=1S/C10H12N2O3/c1-3-5-10(6-4-2)7(13)11-9(15)12-8(10)14/h3-4H,1-2,5-6H2,(H2,11,12,13,14,15)",FDQGNLOWMMVRQL-UHFFFAOYSA-N,C=CCC1(CC=C)C(=O)NC(=O)NC1=O,-2.08
4806,C-157,4-hydroxybenzoic acid,"InChI=1S/C7H6O3/c8-6-3-1-5(2-4-6)7(9)10/h1-4,8H,(H,9,10)",FJKROLUGYXJWQN-UHFFFAOYSA-N,OC(=O)C1=CC=C(O)C=C1,-1.33
4807,C-158,anthranilic  acid;  2-aminobenzoic  acid,"InChI=1S/C7H7NO2/c8-6-4-2-1-3-5(6)7(9)10/h1-4H,8H2,(H,9,10)",RWZYAGGXGHYGMB-UHFFFAOYSA-N,NC1=C(C=CC=C1)C(O)=O,-1.52
4808,C-159,4-tolyl  isothiocyanate;  1-isothiocyanato-4-methylbenzene;  4-isothiocyanatotoluene,"InChI=1S/C8H7NS/c1-7-2-4-8(5-3-7)9-6-10/h2-5H,1H3",ABQKHKWXTUVKGF-UHFFFAOYSA-N,CC1=CC=C(C=C1)N=C=S,-4.72
4809,C-160,salicylamide; 2-hydroxybenzamide,"InChI=1S/C7H7NO2/c8-7(10)5-3-1-2-4-6(5)9/h1-4,9H,(H2,8,10)",SKZKKFZAGNVIMN-UHFFFAOYSA-N,NC(=O)C1=C(O)C=CC=C1,-1.84
4810,C-161,3-hydroxybenzoic acid,"InChI=1S/C7H6O3/c8-6-3-1-2-5(4-6)7(9)10/h1-4,8H,(H,9,10)",IJFXRHURBJZNAO-UHFFFAOYSA-N,OC(=O)C1=CC(=CC=C1)O,-1.24
4811,C-162,"2,5-dichlorophenol","InChI=1S/C6H4Cl2O/c7-4-1-2-5(8)6(9)3-4/h1-3,9H",RANCECPPZPIPNO-UHFFFAOYSA-N,OC1=C(Cl)C=CC(=C1)Cl,-1.91
4812,C-163,5-ethyl-5-pentylbarbituric acid;  5-amyl-5-ethylbarbituric  acid,"InChI=1S/C11H18N2O3/c1-3-5-6-7-11(4-2)8(14)12-10(16)13-9(11)15/h3-7H2,1-2H3,(H2,12,13,14,15,16)",XYGXSCVUMIDZRR-UHFFFAOYSA-N,CCCCCC1(CC)C(=O)NC(=O)NC1=O,-2.51
4813,C-164,4-bromochlorobenzene;  1-bromo-4-chlorobenzene,InChI=1S/C6H4BrCl/c7-5-1-3-6(8)4-2-5/h1-4H,NHDODQWIKUYWMW-UHFFFAOYSA-N,ClC1=CC=C(Br)C=C1,-3.63
4814,C-165,3-nitroaniline,"InChI=1S/C6H6N2O2/c7-5-2-1-3-6(4-5)8(9)10/h1-4H,7H2",XJCVRTZCHMZPBD-UHFFFAOYSA-N,NC1=CC(=CC=C1)[N+]([O-])=O,-2.19
4815,C-166,"2,6-dichlorophenol","InChI=1S/C6H4Cl2O/c7-4-2-1-3-5(8)6(4)9/h1-3,9H",HOLHYSJJBXSLMV-UHFFFAOYSA-N,OC1=C(Cl)C=CC=C1Cl,-1.93
4816,C-167,salicylic  acid,"InChI=1S/C7H6O3/c8-6-4-2-1-3-5(6)7(9)10/h1-4,8H,(H,9,10)",YGSDEFSMJLZEOE-UHFFFAOYSA-N,OC(=O)C1=C(O)C=CC=C1,-1.8
4817,C-168,amobarbital;  5-ethyl-5-isoamylbarbituric  acid,"InChI=1S/C11H18N2O3/c1-4-11(6-5-7(2)3)8(14)12-10(16)13-9(11)15/h7H,4-6H2,1-3H3,(H2,12,13,14,15,16)",VIROVYVQCGLCII-UHFFFAOYSA-N,CCC1(CCC(C)C)C(=O)NC(=O)NC1=O,-2.47
4818,C-169,cymoxanil,"InChI=1S/C7H10N4O3/c1-3-9-7(13)10-6(12)5(4-8)11-14-2/h3H2,1-2H3,(H2,9,10,12,13)/b11-5+",XERJKGMBORTKEO-VZUCSPMQSA-N,CCNC(=O)NC(=O)C(=N/OC)/C#N,-2.3
4819,C-170,4-nitrophenol,"InChI=1S/C6H5NO3/c8-6-3-1-5(2-4-6)7(9)10/h1-4,8H",BTJIUGUIPKRLHP-UHFFFAOYSA-N,OC1=CC=C(C=C1)[N+]([O-])=O,-0.94
4820,C-171,2-nitroaniline,"InChI=1S/C6H6N2O2/c7-5-3-1-2-4-6(5)8(9)10/h1-4H,7H2",DPJCXCZTLWNFOH-UHFFFAOYSA-N,NC1=C(C=CC=C1)[N+]([O-])=O,-1.96
4821,C-172,cinnamic  acid (trans),"InChI=1S/C9H8O2/c10-9(11)7-6-8-4-2-1-3-5-8/h1-7H,(H,10,11)/b7-6+",WBYWAXJHAXSJNI-VOTSOKGWSA-N,OC(=O)/C=C/C1=CC=CC=C1,-2.55
4822,C-173,hexamethylbenzene,InChI=1S/C12H18/c1-7-8(2)10(4)12(6)11(5)9(7)3/h1-6H3,YUWFEBAXEOLKSG-UHFFFAOYSA-N,CC1=C(C)C(=C(C)C(=C1C)C)C,-5.23
4823,C-174,4-methylacetanilide;  4-acetylaminotoluene,"InChI=1S/C9H11NO/c1-7-3-5-9(6-4-7)10-8(2)11/h3-6H,1-2H3,(H,10,11)",YICAMJWHIUMFDI-UHFFFAOYSA-N,CC(=O)NC1=CC=C(C)C=C1,-1.96
4824,C-175,3-nitrophenol,"InChI=1S/C6H5NO3/c8-6-3-1-2-5(4-6)7(9)10/h1-4,8H",RTZZCYNQPHTPPL-UHFFFAOYSA-N,OC1=CC(=CC=C1)[N+]([O-])=O,-1.07
4825,C-176,3-methylacetanilide; 3-acetylaminotoluene,"InChI=1S/C9H11NO/c1-7-4-3-5-9(6-7)10-8(2)11/h3-6H,1-2H3,(H,10,11)",ALMHSXDYCFOZQD-UHFFFAOYSA-N,CC(=O)NC1=CC(=CC=C1)C,-2.09
4826,C-177,pentyl 4-(3-cyclohexylureido)butanoate;  4-(3-cyclohexylureido)butanoic acid pentyl ester,"InChI=1S/C16H30N2O3/c1-2-3-7-13-21-15(19)11-8-12-17-16(20)18-14-9-5-4-6-10-14/h14H,2-13H2,1H3,(H2,17,18,20)",RQHYVHQLEWVZJX-UHFFFAOYSA-N,CCCCCOC(=O)CCCNC(=O)NC1CCCCC1,-2.3
4827,C-178,5-ethyl-5-(3-methyl-2-butenyl)barbituric  acid,"InChI=1S/C11H16N2O3/c1-4-11(6-5-7(2)3)8(14)12-10(16)13-9(11)15/h5H,4,6H2,1-3H3,(H2,12,13,14,15,16)",VDVCBHJNKZNXKT-UHFFFAOYSA-N,CCC1(CC=C(C)C)C(=O)NC(=O)NC1=O,-2.25
4828,C-179,prostaglandin f2alpha;  dinoprost,"InChI=1S/C20H34O5/c1-2-3-6-9-15(21)12-13-17-16(18(22)14-19(17)23)10-7-4-5-8-11-20(24)25/h4,7,12-13,15-19,21-23H,2-3,5-6,8-11,14H2,1H3,(H,24,25)/b7-4+,13-12+",PXGPLTODNUVGFL-RTYMFESYSA-N,CCCCCC(O)/C=C/C1C(O)CC(O)C1C\C=C\CCCC(O)=O,-2.33