,ID,Name,InChI,InChIKey,SMILES,Solubility
4482,B-4483,n2-butyl-n1-p-chlorobenzenesulfonylurea,"InChI=1S/C10H13ClN2O3S/c1-2-7-12-10(14)13-17(15,16)9-5-3-8(11)4-6-9/h3-6H,2,7H2,1H3,(H2,12,13,14)",RKWGIWYCVPQPMF-UHFFFAOYSA-N,CCCNC(=O)N[S](=O)(=O)c1ccc(Cl)cc1,-3.0305
4483,B-4484,eugenol,"InChI=1S/C10H12O2/c1-3-4-8-5-6-9(11)10(7-8)12-2/h3,5-7,11H,1,4H2,2H3",RRAFCDWBNXTKKO-UHFFFAOYSA-N,COc1cc(CC=C)ccc1O,-1.5622
4484,B-4485,triacetin,"InChI=1S/C9H14O6/c1-6(10)13-4-9(15-8(3)12)5-14-7(2)11/h9H,4-5H2,1-3H3",URAYPUMNDPQOKB-UHFFFAOYSA-N,CC(=O)OCC(COC(C)=O)OC(C)=O,-0.5754
4485,B-4486,trifluorperazine,"InChI=1S/C21H24F3N3S/c1-25-11-13-26(14-12-25)9-4-10-27-17-5-2-3-6-19(17)28-20-8-7-16(15-18(20)27)21(22,23)24/h2-3,5-8,15H,4,9-14H2,1H3",ZEWQUBUPAILYHI-UHFFFAOYSA-N,CN1CCN(CCCN2c3ccccc3Sc4ccc(cc24)C(F)(F)F)CC1,-4.5238
4486,B-4487,sulfadimethoxine,"InChI=1S/C12H14N4O4S/c1-19-11-7-10(14-12(15-11)20-2)16-21(17,18)9-5-3-8(13)4-6-9/h3-7H,13H2,1-2H3,(H,14,15,16)",ZZORFUFYDOWNEF-UHFFFAOYSA-N,COc1cc(N[S](=O)(=O)c2ccc(N)cc2)nc(OC)n1,-2.9565
4487,B-4488,griseofulvin,"InChI=1S/C17H19ClO6/c1-8-5-9(19)6-12(23-4)17(8)16(20)13-10(21-2)7-11(22-3)14(18)15(13)24-17/h7-8,12H,5-6H2,1-4H3/t8-,12?,17+/m1/s1",IIUZTXTZRGLYTI-LKUJNTHKSA-N,COC1CC(=O)C[C@@H](C)[C@]12Oc3c(Cl)c(OC)cc(OC)c3C2=O,-4.611000000000001
4488,B-4489,oxyphenbutazone,"InChI=1S/C19H20N2O3/c1-2-3-9-17-18(23)20(14-7-5-4-6-8-14)21(19(17)24)15-10-12-16(22)13-11-15/h4-8,10-13,17,22H,2-3,9H2,1H3",HFHZKZSRXITVMK-UHFFFAOYSA-N,CCCCC1C(=O)N(N(C1=O)c2ccc(O)cc2)c3ccccc3,-3.7329
4489,B-4490,trichlormethiazide,"InChI=1S/C8H8Cl3N3O4S2/c9-3-1-4-6(2-5(3)19(12,15)16)20(17,18)14-8(13-4)7(10)11/h1-2,7-8,13-14H,(H2,12,15,16)",LMJSLTNSBFUCMU-UHFFFAOYSA-N,N[S](=O)(=O)c1cc2c(NC(N[S]2(=O)=O)C(Cl)Cl)cc1Cl,-2.6774
4490,B-4491,sulfanilacetamide,"InChI=1S/C8H10N2O3S/c1-6(11)10-14(12,13)8-4-2-7(9)3-5-8/h2-5H,9H2,1H3,(H,10,11)",SKIVFJLNDNKQPD-UHFFFAOYSA-N,CC(=O)N[S](=O)(=O)c1ccc(N)cc1,-1.234
4491,B-4492,sulfamethiazole,"InChI=1S/C9H10N4O2S2/c1-6-11-12-9(16-6)13-17(14,15)8-4-2-7(10)3-5-8/h2-5H,10H2,1H3,(H,12,13)",VACCAVUAMIDAGB-UHFFFAOYSA-N,Cc1sc(N[S](=O)(=O)c2ccc(N)cc2)nn1,-2.4107
4492,B-4493,erythritol,"InChI=1S/C4H10O4/c5-1-3(7)4(8)2-6/h3-8H,1-2H2",UNXHWFMMPAWVPI-UHFFFAOYSA-N,OCC(O)C(O)CO,0.6985
4493,B-4494,ephedrine,"InChI=1S/C10H15NO/c1-8(11-2)10(12)9-6-4-3-5-7-9/h3-8,10-12H,1-2H3/t8-,10-/m0/s1",KWGRBVOPPLSCSI-WPRPVWTQSA-N,CN[C@@H](C)[C@H](O)c1ccccc1,-0.4147
4494,B-4495,allopurinol,"InChI=1S/C5H4N4O/c10-5-3-1-8-9-4(3)6-2-7-5/h1-2H,(H2,6,7,8,9,10)",OFCNXPDARWKPPY-UHFFFAOYSA-N,O=C1N=CN=C2NNC=C12,-2.3788
4495,B-4496,carbutamide,"InChI=1S/C11H17N3O3S/c1-2-3-8-13-11(15)14-18(16,17)10-6-4-9(12)5-7-10/h4-7H,2-3,8,12H2,1H3,(H2,13,14,15)",VDTNNGKXZGSZIP-UHFFFAOYSA-N,CCCCNC(=O)N[S](=O)(=O)c1ccc(N)cc1,-2.1782
4496,B-4497,brucine,"InChI=1S/C23H26N2O4/c1-27-16-8-14-15(9-17(16)28-2)25-20(26)10-18-21-13-7-19-23(14,22(21)25)4-5-24(19)11-12(13)3-6-29-18/h3,8-9,13,18-19,21-22H,4-7,10-11H2,1-2H3/t13-,18?,19-,21-,22?,23+/m0/s1",RRKTZKIUPZVBMF-PLNGPGDESA-N,COc1cc2N3C4[C@@H]5C(CC3=O)OCC=C6CN7CC[C@]4([C@@H]7C[C@H]56)c2cc1OC,-2.0909
4497,B-4498,diazepam,"InChI=1S/C16H13ClN2O/c1-19-14-8-7-12(17)9-13(14)16(18-10-15(19)20)11-5-3-2-4-6-11/h2-9H,10H2,1H3",AAOVKJBEBIDNHE-UHFFFAOYSA-N,CN1C(=O)CN=C(c2ccccc2)c3cc(Cl)ccc13,-3.7555
4498,B-4499,metronidazole,"InChI=1S/C6H9N3O3/c1-5-7-4-6(9(11)12)8(5)2-3-10/h4,10H,2-3H2,1H3",VAOCPAMSLUNLGC-UHFFFAOYSA-N,Cc1ncc(n1CCO)[N+]([O-])=O,-1.2557
4499,B-4500,ethoxyzolamide,"InChI=1S/C9H10N2O3S2/c1-2-14-6-3-4-7-8(5-6)15-9(11-7)16(10,12)13/h3-5H,2H2,1H3,(H2,10,12,13)",OUZWUKMCLIBBOG-UHFFFAOYSA-N,CCOc1ccc2nc(sc2c1)[S](N)(=O)=O,-3.8101
4500,B-4501,sulfaphenazole,"InChI=1S/C15H14N4O2S/c16-12-6-8-14(9-7-12)22(20,21)18-15-10-11-17-19(15)13-4-2-1-3-5-13/h1-11,18H,16H2",QWCJHSGMANYXCW-UHFFFAOYSA-N,Nc1ccc(cc1)[S](=O)(=O)Nc2ccnn2c3ccccc3,-2.3213
4501,B-4502,eriodictyol,"InChI=1S/C15H12O6/c16-8-4-11(19)15-12(20)6-13(21-14(15)5-8)7-1-2-9(17)10(18)3-7/h1-5,13,16-19H,6H2/t13-/m0/s1",SBHXYTNGIZCORC-ZDUSSCGKSA-N,Oc1cc(O)c2C(=O)C[C@H](Oc2c1)c3ccc(O)c(O)c3,-3.6147
4502,B-4503,sulfaperine,"InChI=1S/C11H12N4O2S/c1-8-6-13-11(14-7-8)15-18(16,17)10-4-2-9(12)3-5-10/h2-7H,12H2,1H3,(H,13,14,15)",DZQVFHSCSRACSX-UHFFFAOYSA-N,Cc1cnc(N[S](=O)(=O)c2ccc(N)cc2)nc1,-2.82
4503,B-4504,sulfameter,"InChI=1S/C11H12N4O3S/c1-18-9-6-13-11(14-7-9)15-19(16,17)10-4-2-8(12)3-5-10/h2-7H,12H2,1H3,(H,13,14,15)",GPTONYMQFTZPKC-UHFFFAOYSA-N,COc1cnc(N[S](=O)(=O)c2ccc(N)cc2)nc1,-2.5843
4504,B-4505,tolcyclamide,"InChI=1S/C14H20N2O3S/c1-11-7-9-13(10-8-11)20(18,19)16-14(17)15-12-5-3-2-4-6-12/h7-10,12H,2-6H2,1H3,(H2,15,16,17)",RIGBPMDIGYBTBJ-UHFFFAOYSA-N,Cc1ccc(cc1)[S](=O)(=O)NC(=O)NC2CCCCC2,-4.207
4505,B-4506,sulfamethoxazole,"InChI=1S/C10H11N3O3S/c1-7-6-10(12-16-7)13-17(14,15)9-4-2-8(11)3-5-9/h2-6H,11H2,1H3,(H,12,13)",JLKIGFTWXXRPMT-UHFFFAOYSA-N,Cc1onc(N[S](=O)(=O)c2ccc(N)cc2)c1,-2.6183
4506,B-4507,trimethoprim,"InChI=1S/C14H18N4O3/c1-19-10-5-8(6-11(20-2)12(10)21-3)4-9-7-17-14(16)18-13(9)15/h5-7H,4H2,1-3H3,(H4,15,16,17,18)",IEDVJHCEMCRBQM-UHFFFAOYSA-N,COc1cc(Cc2cnc(N)nc2N)cc(OC)c1OC,-2.8608
4507,B-4508,ketoprofen,"InChI=1S/C16H14O3/c1-11(16(18)19)13-8-5-9-14(10-13)15(17)12-6-3-2-4-7-12/h2-11H,1H3,(H,18,19)",DKYWVDODHFEZIM-UHFFFAOYSA-N,CC(C(O)=O)c1cccc(c1)C(=O)c2ccccc2,-3.6977
4508,B-4509,naprosyn,"InChI=1S/C14H14O3/c1-9(14(15)16)10-3-4-12-8-13(17-2)6-5-11(12)7-10/h3-9H,1-2H3,(H,15,16)",CMWTZPSULFXXJA-UHFFFAOYSA-N,COc1ccc2cc(ccc2c1)C(C)C(O)=O,-4.1608
4509,B-4510,deoxycorticosterone acetate,"InChI=1S/C23H32O4/c1-14(24)27-13-21(26)20-7-6-18-17-5-4-15-12-16(25)8-10-22(15,2)19(17)9-11-23(18,20)3/h12,17-20H,4-11,13H2,1-3H3/t17-,18-,19-,20+,22-,23-/m0/s1",VPGRYOFKCNULNK-ACXQXYJUSA-N,CC(=O)OCC(=O)[C@H]1CC[C@H]2[C@@H]3CCC4=CC(=O)CC[C@]4(C)[C@H]3CC[C@]12C,-4.6301
4510,B-4511,triamcinolone,"InChI=1S/C21H27FO6/c1-18-6-5-12(24)7-11(18)3-4-13-14-8-15(25)21(28,17(27)10-23)19(14,2)9-16(26)20(13,18)22/h5-7,13-16,23,25-26,28H,3-4,8-10H2,1-2H3/t13-,14-,15+,16-,18-,19-,20-,21-/m0/s1",GFNANZIMVAIWHM-OBYCQNJPSA-N,C[C@]12C[C@H](O)[C@@]3(F)[C@@H](CCC4=CC(=O)C=C[C@]34C)[C@@H]1C[C@@H](O)[C@]2(O)C(=O)CO,-3.6929
4511,B-4512,betamethasone-17-valerate,"InChI=1S/C27H37FO6/c1-5-6-7-23(33)34-27(22(32)15-29)16(2)12-20-19-9-8-17-13-18(30)10-11-24(17,3)26(19,28)21(31)14-25(20,27)4/h10-11,13,16,19-21,29,31H,5-9,12,14-15H2,1-4H3/t16-,19-,20-,21-,24-,25-,26-,27-/m0/s1",SNHRLVCMMWUAJD-SUYDQAKGSA-N,CCCCC(=O)O[C@@]1([C@@H](C)C[C@H]2[C@@H]3CCC4=CC(=O)C=C[C@]4(C)[C@@]3(F)[C@@H](O)C[C@]12C)C(=O)CO,-4.7101
4512,B-4513,2-nitroaniline,"InChI=1S/C6H6N2O2/c7-5-3-1-2-4-6(5)8(9)10/h1-4H,7H2",DPJCXCZTLWNFOH-UHFFFAOYSA-N,Nc1ccccc1[N+]([O-])=O,-1.973
4513,B-4514,o-aminophenol,"InChI=1S/C6H7NO/c7-5-3-1-2-4-6(5)8/h1-4,8H,7H2",CDAWCLOXVUBKRW-UHFFFAOYSA-N,Nc1ccccc1O,-0.7369
4514,B-4515,"2-amino-4,6-dinitrophenol","InChI=1S/C6H5N3O5/c7-4-1-3(8(11)12)2-5(6(4)10)9(13)14/h1-2,10H,7H2",QXYMVUZOGFVPGH-UHFFFAOYSA-N,Nc1cc(cc(c1O)[N+]([O-])=O)[N+]([O-])=O,-2.4862
4515,B-4516,3-nitroaniline,"InChI=1S/C6H6N2O2/c7-5-2-1-3-6(4-5)8(9)10/h1-4H,7H2",XJCVRTZCHMZPBD-UHFFFAOYSA-N,Nc1cccc(c1)[N+]([O-])=O,-2.0611
4516,B-4517,4-nitroaniline,"InChI=1S/C6H6N2O2/c7-5-1-3-6(4-2-5)8(9)10/h1-4H,7H2",TYMLOMAKGOJONV-UHFFFAOYSA-N,Nc1ccc(cc1)[N+]([O-])=O,-2.2782
4517,B-4518,"phenol, 4-amino-","InChI=1S/C6H7NO/c7-5-1-3-6(8)4-2-5/h1-4,8H,7H2",PLIKAWJENQZMHA-UHFFFAOYSA-N,Nc1ccc(O)cc1,-0.8338
4518,B-4519,"phenol, 3-amino-","InChI=1S/C6H7NO/c7-5-2-1-3-6(8)4-5/h1-4,8H,7H2",CWLKGDAVCFYWJK-UHFFFAOYSA-N,Nc1cccc(O)c1,-0.6066
4519,B-4520,"2,4-dinitrophenol","InChI=1S/C6H4N2O5/c9-6-2-1-4(7(10)11)3-5(6)8(12)13/h1-3,9H",UFBJCMHMOXMLKC-UHFFFAOYSA-N,Oc1ccc(cc1[N+]([O-])=O)[N+]([O-])=O,-2.5976
4520,B-4521,2-nitrophenol,"InChI=1S/C6H5NO3/c8-6-4-2-1-3-5(6)7(9)10/h1-4,8H",IQUPABOKLQSFBK-UHFFFAOYSA-N,Oc1ccccc1[N+]([O-])=O,-1.7454
4521,B-4522,4-methyl-2-nitrophenol,"InChI=1S/C7H7NO3/c1-5-2-3-7(9)6(4-5)8(10)11/h2-4,9H,1H3",SYDNSSSQVSOXTN-UHFFFAOYSA-N,Cc1ccc(O)c(c1)[N+]([O-])=O,-2.3837
4522,B-4523,vanillin,"InChI=1S/C8H8O3/c1-11-8-4-6(5-9)2-3-7(8)10/h2-5,10H,1H3",MWOOGOJBHIARFG-UHFFFAOYSA-N,COc1cc(C=O)ccc1O,-1.1409
4523,B-4524,4-hydroxybenzaldehyde,"InChI=1S/C7H6O2/c8-5-6-1-3-7(9)4-2-6/h1-5,9H",RGHHSNMVTDWUBI-UHFFFAOYSA-N,Oc1ccc(C=O)cc1,-0.9762
4524,B-4525,"2,5-dinitrophenol","InChI=1S/C6H4N2O5/c9-6-3-4(7(10)11)1-2-5(6)8(12)13/h1-3,9H",UWEZBKLLMKVIPI-UHFFFAOYSA-N,Oc1cc(ccc1[N+]([O-])=O)[N+]([O-])=O,-2.6796
4525,B-4526,5-fluoro-2-nitrophenol,"InChI=1S/C6H4FNO3/c7-4-1-2-5(8(10)11)6(9)3-4/h1-3,9H",QQURWFRNETXFTN-UHFFFAOYSA-N,Oc1cc(F)ccc1[N+]([O-])=O,-2.05
4526,B-4527,"4,6-dinitro-o-cresol","InChI=1S/C7H6N2O5/c1-4-2-5(8(11)12)3-6(7(4)10)9(13)14/h2-3,10H,1H3",ZXVONLUNISGICL-UHFFFAOYSA-N,Cc1cc(cc(c1O)[N+]([O-])=O)[N+]([O-])=O,-3.0003
4527,B-4528,"2,6-dinitrophenol","InChI=1S/C6H4N2O5/c9-6-4(7(10)11)2-1-3-5(6)8(12)13/h1-3,9H",JCRIDWXIBSEOEG-UHFFFAOYSA-N,Oc1c(cccc1[N+]([O-])=O)[N+]([O-])=O,-2.7668
4528,B-4529,2-nitroresorcinol,"InChI=1S/C6H5NO4/c8-4-2-1-3-5(9)6(4)7(10)11/h1-3,8-9H",ZLCPKMIJYMHZMJ-UHFFFAOYSA-N,Oc1cccc(O)c1[N+]([O-])=O,-2.0734
4529,B-4530,4-phenyl-2-nitrophenol,"InChI=1S/C12H9NO3/c14-12-7-6-10(8-11(12)13(15)16)9-4-2-1-3-5-9/h1-8,14H",JDDNJJBXFOLPKX-UHFFFAOYSA-N,Oc1ccc(cc1[N+]([O-])=O)c2ccccc2,-4.4101
4530,B-4531,4-(sec-butyl)-2-nitrophenol,"InChI=1S/C10H13NO3/c1-3-7(2)8-4-5-10(12)9(6-8)11(13)14/h4-7,12H,3H2,1-2H3",GCDCKEORRIGZKI-UHFFFAOYSA-N,CCC(C)c1ccc(O)c(c1)[N+]([O-])=O,-3.8403
4531,B-4532,p-aminosalicylic acid,"InChI=1S/C7H7NO3/c8-4-1-2-5(7(10)11)6(9)3-4/h1-3,9H,8H2,(H,10,11)",WUBBRNOQWQTFEX-UHFFFAOYSA-N,Nc1ccc(C(O)=O)c(O)c1,-1.9572
4532,B-4533,salicylic acid,"InChI=1S/C7H6O3/c8-6-4-2-1-3-5(6)7(9)10/h1-4,8H,(H,9,10)",YGSDEFSMJLZEOE-UHFFFAOYSA-N,OC(=O)c1ccccc1O,-1.79
4533,B-4534,3-aminobenzoic acid,"InChI=1S/C7H7NO2/c8-6-3-1-2-5(4-6)7(9)10/h1-4H,8H2,(H,9,10)",XFDUHJPVQKIXHO-UHFFFAOYSA-N,Nc1cccc(c1)C(O)=O,-1.3663
4534,B-4535,m-hydroxybenzoic acid,"InChI=1S/C7H6O3/c8-6-3-1-2-5(4-6)7(9)10/h1-4,8H,(H,9,10)",IJFXRHURBJZNAO-UHFFFAOYSA-N,OC(=O)c1cccc(O)c1,-1.2799
4535,B-4536,"3,4-dihydroxybenzoic acid","InChI=1S/C7H6O4/c8-5-2-1-4(7(10)11)3-6(5)9/h1-3,8-9H,(H,10,11)",YQUVCSBJEUQKSH-UHFFFAOYSA-N,OC(=O)c1ccc(O)c(O)c1,-0.9278
4536,B-4537,p-hydroxybenzoic acid,"InChI=1S/C7H6O3/c8-6-3-1-5(2-4-6)7(9)10/h1-4,8H,(H,9,10)",FJKROLUGYXJWQN-UHFFFAOYSA-N,OC(=O)c1ccc(O)cc1,-1.4413
4537,B-4538,2-aminobenzoic acid,"InChI=1S/C7H7NO2/c8-6-4-2-1-3-5(6)7(9)10/h1-4H,8H2,(H,9,10)",RWZYAGGXGHYGMB-UHFFFAOYSA-N,Nc1ccccc1C(O)=O,-1.5931
4538,B-4539,4-hydroxy-3-methoxybenzoic acid,"InChI=1S/C8H8O4/c1-12-7-4-5(8(10)11)2-3-6(7)9/h2-4,9H,1H3,(H,10,11)",WKOLLVMJNQIZCI-UHFFFAOYSA-N,COc1cc(ccc1O)C(O)=O,-2.0496
4539,B-4540,"3-amino-2,5-dichlorobenzoic acid","InChI=1S/C7H5Cl2NO2/c8-3-1-4(7(11)12)6(9)5(10)2-3/h1-2H,10H2,(H,11,12)",HSSBORCLYSCBJR-UHFFFAOYSA-N,Nc1cc(Cl)cc(C(O)=O)c1Cl,-2.4688
4540,B-4541,4-aminobenzoic acid,"InChI=1S/C7H7NO2/c8-6-3-1-5(2-4-6)7(9)10/h1-4H,8H2,(H,9,10)",ALYNCZNDIQEVRV-UHFFFAOYSA-N,Nc1ccc(cc1)C(O)=O,-1.3511
4541,B-4542,"2,6-dihydroxybenzoic acid","InChI=1S/C7H6O4/c8-4-2-1-3-5(9)6(4)7(10)11/h1-3,8-9H,(H,10,11)",AKEUNCKRJATALU-UHFFFAOYSA-N,OC(=O)c1c(O)cccc1O,-1.2074
4542,B-4543,"2,5-dihydroxybenzoic acid","InChI=1S/C7H6O4/c8-4-1-2-6(9)5(3-4)7(10)11/h1-3,8-9H,(H,10,11)",WXTMDXOMEHJXQO-UHFFFAOYSA-N,OC(=O)c1cc(O)ccc1O,-1.4889
4543,B-4544,3-hydroxybenzaldehyde,"InChI=1S/C7H6O2/c8-5-6-2-1-3-7(9)4-6/h1-5,9H",IAVREABSGIHHMO-UHFFFAOYSA-N,Oc1cccc(C=O)c1,-0.6475
4544,B-4545,p-hydroxy propyl benzoate,"InChI=1S/C10H12O3/c1-2-7-13-10(12)8-3-5-9(11)6-4-8/h3-6,11H,2,7H2,1H3",QELSKZZBTMNZEB-UHFFFAOYSA-N,CCCOC(=O)c1ccc(O)cc1,-2.5568
4545,B-4546,"p-aminobenzoic acid, ethyl ester","InChI=1S/C9H11NO2/c1-2-12-9(11)7-3-5-8(10)6-4-7/h3-6H,2,10H2,1H3",BLFLLBZGZJTVJG-UHFFFAOYSA-N,CCOC(=O)c1ccc(N)cc1,-2.1007
4546,B-4547,propyl-p-aminobenzoate,"InChI=1S/C10H13NO2/c1-2-7-13-10(12)8-3-5-9(11)6-4-8/h3-6H,2,7,11H2,1H3",NBFQYHKHPBMJJV-UHFFFAOYSA-N,CCCOC(=O)c1ccc(N)cc1,-2.3281
4547,B-4548,p-hydroxy butyl benzoate,"InChI=1S/C11H14O3/c1-2-3-8-14-11(13)9-4-6-10(12)7-5-9/h4-7,12H,2-3,8H2,1H3",QFOHBWFCKVYLES-UHFFFAOYSA-N,CCCCOC(=O)c1ccc(O)cc1,-2.9723
4548,B-4549,4-hydroxy methyl benzoate,"InChI=1S/C8H8O3/c1-11-8(10)6-2-4-7(9)5-3-6/h2-5,9H,1H3",LXCFILQKKLGQFO-UHFFFAOYSA-N,COC(=O)c1ccc(O)cc1,-1.7843
4549,B-4550,methyl salicylate,"InChI=1S/C8H8O3/c1-11-8(10)6-4-2-3-5-7(6)9/h2-5,9H,1H3",OSWPMRLSEDHDFF-UHFFFAOYSA-N,COC(=O)c1ccccc1O,-1.3130000000000002
4550,B-4551,"p-hydroxybenzoic acid,ethyl ester","InChI=1S/C9H10O3/c1-2-12-9(11)7-3-5-8(10)6-4-7/h3-6,10H,2H2,1H3",NUVBSKCKDOMJSU-UHFFFAOYSA-N,CCOC(=O)c1ccc(O)cc1,-2.3089
4551,B-4552,phenyl-4-aminosalicylate,"InChI=1S/C13H11NO3/c14-9-6-7-11(12(15)8-9)13(16)17-10-4-2-1-3-5-10/h1-8,15H,14H2",DNVVZWSVACQWJE-UHFFFAOYSA-N,Nc1ccc(c(O)c1)C(=O)Oc2ccccc2,-4.5152
4552,B-4553,methyl p-aminobenzoate,"InChI=1S/C8H9NO2/c1-11-8(10)6-2-4-7(9)5-3-6/h2-5H,9H2,1H3",LZXXNPOYQCLXRS-UHFFFAOYSA-N,COC(=O)c1ccc(N)cc1,-1.5974
4553,B-4554,"benzoic acid, 4-amino-,pentyl ester","InChI=1S/C12H17NO2/c1-2-3-4-9-15-12(14)10-5-7-11(13)8-6-10/h5-8H,2-4,9,13H2,1H3",VKYWCHMXHQTCJQ-UHFFFAOYSA-N,CCCCCOC(=O)c1ccc(N)cc1,-3.3499
4554,B-4555,"benzoic acid,4-amino-,heptyl ester","InChI=1S/C14H21NO2/c1-2-3-4-5-6-11-17-14(16)12-7-9-13(15)10-8-12/h7-10H,2-6,11,15H2,1H3",IAHJVNSZPMIREM-UHFFFAOYSA-N,CCCCCCCOC(=O)c1ccc(N)cc1,-4.6001
4555,B-4556,"benzoic acid,4-amino,octyl ester","InChI=1S/C15H23NO2/c1-2-3-4-5-6-7-12-18-15(17)13-8-10-14(16)11-9-13/h8-11H,2-7,12,16H2,1H3",XOEUGELJHSUYGP-UHFFFAOYSA-N,CCCCCCCCOC(=O)c1ccc(N)cc1,-5.3999
4556,B-4557,furosemide,"InChI=1S/C12H11ClN2O5S/c13-9-5-10(15-6-7-2-1-3-20-7)8(12(16)17)4-11(9)21(14,18)19/h1-5,15H,6H2,(H,16,17)(H2,14,18,19)",ZZUFCTLCJUWOSV-UHFFFAOYSA-N,N[S](=O)(=O)c1cc(C(O)=O)c(NCc2occc2)cc1Cl,-3.6556
4557,B-4558,"1,1-diethoxyethane","InChI=1S/C6H14O2/c1-4-7-6(3)8-5-2/h6H,4-5H2,1-3H3",DHKHKXVYLBGOIT-UHFFFAOYSA-N,CCOC(C)OCC,-0.4291
4558,B-4559,dimethoxymethane,"InChI=1S/C3H8O2/c1-4-3-5-2/h3H2,1-2H3",NKDDWNXOKDWJAK-UHFFFAOYSA-N,COCOC,0.506
4559,B-4560,"1,3,5-trioxane",InChI=1S/C3H6O3/c1-4-2-6-3-5-1/h1-3H2,BGJSXRVXTHVRSN-UHFFFAOYSA-N,C1OCOCO1,0.2884
4560,B-4561,paraldehyde,"InChI=1S/C6H12O3/c1-4-7-5(2)9-6(3)8-4/h4-6H,1-3H3",SQYNKIJPMDEDEG-UHFFFAOYSA-N,CC1OC(C)OC(C)O1,-0.0719
4561,B-4562,diethoxymethane,"InChI=1S/C5H12O2/c1-3-6-5-7-4-2/h3-5H2,1-2H3",KLKFAASOGCDTDT-UHFFFAOYSA-N,CCOCOCC,-0.1726
4562,B-4563,dexamethasone,"InChI=1S/C22H29FO5/c1-12-8-16-15-5-4-13-9-14(25)6-7-19(13,2)21(15,23)17(26)10-20(16,3)22(12,28)18(27)11-24/h6-7,9,12,15-17,24,26,28H,4-5,8,10-11H2,1-3H3/t12-,15+,16+,17+,19+,20+,21+,22+/m1/s1",UREBDLICKHMUKA-CXSFZGCWSA-N,C[C@@H]1C[C@H]2[C@@H]3CCC4=CC(=O)C=C[C@]4(C)[C@@]3(F)[C@@H](O)C[C@]2(C)[C@@]1(O)C(=O)CO,-3.6444
4563,B-4564,hydrocortisone acetate,"InChI=1S/C23H32O6/c1-13(24)29-12-19(27)23(28)9-7-17-16-5-4-14-10-15(25)6-8-21(14,2)20(16)18(26)11-22(17,23)3/h10,16-18,20,26,28H,4-9,11-12H2,1-3H3/t16-,17-,18-,20+,21-,22-,23-/m0/s1",ALEXXDVDDISNDU-JZYPGELDSA-N,CC(=O)OCC(=O)[C@@]1(O)CC[C@H]2[C@@H]3CCC4=CC(=O)CC[C@]4(C)[C@H]3[C@@H](O)C[C@]12C,-4.4577
4564,B-4565,cortisone acetate,"InChI=1S/C23H30O6/c1-13(24)29-12-19(27)23(28)9-7-17-16-5-4-14-10-15(25)6-8-21(14,2)20(16)18(26)11-22(17,23)3/h10,16-17,20,28H,4-9,11-12H2,1-3H3/t16-,17-,20+,21-,22-,23-/m0/s1",ITRJWOMZKQRYTA-RFZYENFJSA-N,CC(=O)OCC(=O)[C@@]1(O)CC[C@H]2[C@@H]3CCC4=CC(=O)CC[C@]4(C)[C@H]3C(=O)C[C@]12C,-4.3037
4565,B-4566,corticosterone,"InChI=1S/C21H30O4/c1-20-8-7-13(23)9-12(20)3-4-14-15-5-6-16(18(25)11-22)21(15,2)10-17(24)19(14)20/h9,14-17,19,22,24H,3-8,10-11H2,1-2H3/t14-,15-,16+,17-,19+,20-,21-/m0/s1",OMFXVFTZEKFJBZ-HJTSIMOOSA-N,C[C@]12C[C@H](O)[C@H]3[C@@H](CCC4=CC(=O)CC[C@]34C)[C@@H]1CC[C@@H]2C(=O)CO,-3.2408
4566,B-4567,hydrocortisone,"InChI=1S/C21H30O5/c1-19-7-5-13(23)9-12(19)3-4-14-15-6-8-21(26,17(25)11-22)20(15,2)10-16(24)18(14)19/h9,14-16,18,22,24,26H,3-8,10-11H2,1-2H3/t14-,15-,16-,18+,19-,20-,21-/m0/s1",JYGXADMDTFJGBT-VWUMJDOOSA-N,C[C@]12CCC(=O)C=C1CC[C@H]3[C@@H]4CC[C@](O)(C(=O)CO)[C@@]4(C)C[C@H](O)[C@H]23,-3.0541
4567,B-4568,prednisolone,"InChI=1S/C21H28O5/c1-19-7-5-13(23)9-12(19)3-4-14-15-6-8-21(26,17(25)11-22)20(15,2)10-16(24)18(14)19/h5,7,9,14-16,18,22,24,26H,3-4,6,8,10-11H2,1-2H3/t14-,15-,16-,18+,19-,20-,21-/m0/s1",OIGNJSKKLXVSLS-VWUMJDOOSA-N,C[C@]12C[C@H](O)[C@H]3[C@@H](CCC4=CC(=O)C=C[C@]34C)[C@@H]1CC[C@]2(O)C(=O)CO,-3.2085
4568,B-4569,prednisolone acetate,"InChI=1S/C23H30O6/c1-13(24)29-12-19(27)23(28)9-7-17-16-5-4-14-10-15(25)6-8-21(14,2)20(16)18(26)11-22(17,23)3/h6,8,10,16-18,20,26,28H,4-5,7,9,11-12H2,1-3H3/t16-,17-,18-,20+,21-,22-,23-/m0/s1",LRJOMUJRLNCICJ-JZYPGELDSA-N,CC(=O)OCC(=O)[C@@]1(O)CC[C@H]2[C@@H]3CCC4=CC(=O)C=C[C@]4(C)[C@H]3[C@@H](O)C[C@]12C,-4.3692
4569,B-4570,cortisone,"InChI=1S/C21H28O5/c1-19-7-5-13(23)9-12(19)3-4-14-15-6-8-21(26,17(25)11-22)20(15,2)10-16(24)18(14)19/h9,14-15,18,22,26H,3-8,10-11H2,1-2H3/t14-,15-,18+,19-,20-,21-/m0/s1",MFYSYFVPBJMHGN-ZPOLXVRWSA-N,C[C@]12CCC(=O)C=C1CC[C@H]3[C@@H]4CC[C@](O)(C(=O)CO)[C@@]4(C)CC(=O)[C@H]23,-3.1097
4570,B-4571,progesterone,"InChI=1S/C21H30O2/c1-13(22)17-6-7-18-16-5-4-14-12-15(23)8-10-20(14,2)19(16)9-11-21(17,18)3/h12,16-19H,4-11H2,1-3H3/t16-,17+,18-,19-,20-,21+/m0/s1",RJKFOVLPORLFTN-LEKSSAKUSA-N,CC(=O)[C@H]1CC[C@H]2[C@@H]3CCC4=CC(=O)CC[C@]4(C)[C@H]3CC[C@]12C,-4.5526
4571,B-4572,17-methyltestosterone,"InChI=1S/C20H30O2/c1-18-9-6-14(21)12-13(18)4-5-15-16(18)7-10-19(2)17(15)8-11-20(19,3)22/h12,15-17,22H,4-11H2,1-3H3/t15-,16+,17+,18+,19+,20+/m1/s1",GCKMFJBGXUYNAG-HLXURNFRSA-N,C[C@]1(O)CC[C@H]2[C@@H]3CCC4=CC(=O)CC[C@]4(C)[C@H]3CC[C@]12C,-3.9505
4572,B-4573,testosterone,"InChI=1S/C19H28O2/c1-18-9-7-13(20)11-12(18)3-4-14-15-5-6-17(21)19(15,2)10-8-16(14)18/h11,14-17,21H,3-10H2,1-2H3/t14-,15-,16-,17-,18-,19-/m0/s1",MUMGGOZAMZWBJJ-DYKIIFRCSA-N,C[C@]12CC[C@H]3[C@@H](CCC4=CC(=O)CC[C@]34C)[C@@H]1CC[C@@H]2O,-4.0908
4573,B-4574,androstenedione,"InChI=1S/C19H26O2/c1-18-9-7-13(20)11-12(18)3-4-14-15-5-6-17(21)19(15,2)10-8-16(14)18/h11,14-16H,3-10H2,1-2H3/t14-,15-,16-,18-,19-/m0/s1",AEMFNILZOJDQLW-QAGGRKNESA-N,C[C@]12CC[C@H]3[C@@H](CCC4=CC(=O)CC[C@]34C)[C@@H]1CCC2=O,-3.6949
4574,B-4575,deoxycorticosterone,"InChI=1S/C21H30O3/c1-20-9-7-14(23)11-13(20)3-4-15-16-5-6-18(19(24)12-22)21(16,2)10-8-17(15)20/h11,15-18,22H,3-10,12H2,1-2H3/t15-,16-,17-,18+,20-,21-/m0/s1",ZESRJSPZRDMNHY-YFWFAHHUSA-N,C[C@]12CC[C@H]3[C@@H](CCC4=CC(=O)CC[C@]34C)[C@@H]1CC[C@@H]2C(=O)CO,-3.7446
4575,B-4576,triamcinolone diacetate,"InChI=1S/C25H31FO8/c1-13(27)33-12-20(31)25(32)21(34-14(2)28)10-18-17-6-5-15-9-16(29)7-8-22(15,3)24(17,26)19(30)11-23(18,25)4/h7-9,17-19,21,30,32H,5-6,10-12H2,1-4H3/t17-,18-,19-,21+,22-,23-,24-,25+/m0/s1",XGMPVBXKDAHORN-RBWIMXSLSA-N,CC(=O)OCC(=O)[C@@]1(O)[C@@H](C[C@H]2[C@@H]3CCC4=CC(=O)C=C[C@]4(C)[C@@]3(F)[C@@H](O)C[C@]12C)OC(C)=O,-4.1297
4576,B-4577,17-alpha-hydroxyprogesterone,"InChI=1S/C21H30O3/c1-13(22)21(24)11-8-18-16-5-4-14-12-15(23)6-9-19(14,2)17(16)7-10-20(18,21)3/h12,16-18,24H,4-11H2,1-3H3/t16-,17+,18+,19+,20+,21+/m1/s1",DBPWSSGDRRHUNT-CEGNMAFCSA-N,CC(=O)[C@@]1(O)CC[C@H]2[C@@H]3CCC4=CC(=O)CC[C@]4(C)[C@H]3CC[C@]12C,-4.7076
4577,B-4578,fludrocortisone,"InChI=1S/C21H29FO5/c1-18-7-5-13(24)9-12(18)3-4-15-14-6-8-20(27,17(26)11-23)19(14,2)10-16(25)21(15,18)22/h9,14-16,23,25,27H,3-8,10-11H2,1-2H3/t14-,15-,16-,18-,19-,20-,21-/m0/s1",AAXVEMMRQDVLJB-BULBTXNYSA-N,C[C@]12C[C@H](O)[C@@]3(F)[C@@H](CCC4=CC(=O)CC[C@]34C)[C@@H]1CC[C@]2(O)C(=O)CO,-3.4342
4578,B-4579,betamethasone,"InChI=1S/C22H29FO5/c1-12-8-16-15-5-4-13-9-14(25)6-7-19(13,2)21(15,23)17(26)10-20(16,3)22(12,28)18(27)11-24/h6-7,9,12,15-17,24,26,28H,4-5,8,10-11H2,1-3H3/t12-,15-,16-,17-,19-,20-,21-,22-/m0/s1",UREBDLICKHMUKA-DVTGEIKXSA-N,C[C@H]1C[C@H]2[C@@H]3CCC4=CC(=O)C=C[C@]4(C)[C@@]3(F)[C@@H](O)C[C@]2(C)[C@@]1(O)C(=O)CO,-3.7710000000000004
4579,B-4580,fluoromethalone,"InChI=1S/C22H29FO4/c1-12-9-17-15-6-8-21(27,13(2)24)20(15,4)11-18(26)22(17,23)19(3)7-5-14(25)10-16(12)19/h5,7,10,12,15,17-18,26-27H,6,8-9,11H2,1-4H3/t12-,15-,17-,18-,19-,20-,21-,22-/m0/s1",FAOZLTXFLGPHNG-KNAQIMQKSA-N,C[C@H]1C[C@H]2[C@@H]3CC[C@](O)(C(C)=O)[C@@]3(C)C[C@H](O)[C@]2(F)[C@@]4(C)C=CC(=O)C=C14,-4.0986