,ID,Name,InChI,InChIKey,SMILES,Solubility
1598,B-1599,prednisolone 21-trimethylacetate,"InChI=1S/C26H36O6/c1-23(2,3)22(30)32-14-20(29)26(31)11-9-18-17-7-6-15-12-16(27)8-10-24(15,4)21(17)19(28)13-25(18,26)5/h8,10,12,17-19,21,28,31H,6-7,9,11,13-14H2,1-5H3",PHEOVVDXTQVHAZ-UHFFFAOYSA-N,CC(C)(C)C(=O)OCC(=O)C1(O)CCC2C3CCC4=CC(=O)C=CC4(C)C3C(O)CC12C,-4.5835
1599,B-1600,dimethoxon,"InChI=1S/C5H12NO4PS/c1-6-5(7)4-12-11(8,9-2)10-3/h4H2,1-3H3,(H,6,7)",PZXOQEXFMJCDPG-UHFFFAOYSA-N,CNC(=O)CS[P](=O)(OC)OC,0.6712
1600,B-1601,pebulate,"InChI=1S/C10H21NOS/c1-4-7-8-11(6-3)10(12)13-9-5-2/h4-9H2,1-3H3",SGEJQUSYQTVSIU-UHFFFAOYSA-N,CCCCN(CC)C(=O)SCCC,-3.3082
1601,B-1602,"dl-methionine, n-acetyl-","InChI=1S/C7H13NO3S/c1-5(9)8-6(7(10)11)3-4-12-2/h6H,3-4H2,1-2H3,(H,8,9)(H,10,11)/p-1/t6-/m1/s1",XUYPXLNMDZIRQH-ZCFIWIBFSA-M,CSCC[C@@H](NC(C)=O)C([O-])=O,-0.3216
1602,B-1603,"heptanoic acid, 2-amino-, (.+-.)-","InChI=1S/C7H15NO2/c1-2-3-4-5-6(8)7(9)10/h6H,2-5,8H2,1H3,(H,9,10)",RDFMDVXONNIGBC-UHFFFAOYSA-N,CCCCCC(N)C(O)=O,-0.94
1603,B-1604,n-nitrosodiethanolamine,"InChI=1S/C4H10N2O3/c7-3-1-6(5-9)2-4-8/h7-8H,1-4H2",YFCDLVPYFMHRQZ-UHFFFAOYSA-N,OCCN(CCO)N=O,0.8724
1604,B-1605,tri(n-octyl)amine,"InChI=1S/C24H51N/c1-4-7-10-13-16-19-22-25(23-20-17-14-11-8-5-2)24-21-18-15-12-9-6-3/h4-24H2,1-3H3",XTAZYLNFDRKIHJ-UHFFFAOYSA-N,CCCCCCCCN(CCCCCCCC)CCCCCCCC,-6.8496
1605,B-1606,"urea, (1,1-dimethylethyl)-","InChI=1S/C5H12N2O/c1-5(2,3)7-4(6)8/h1-3H3,(H3,6,7,8)",JLEHSYHLHLHPAL-UHFFFAOYSA-N,CC(C)(C)NC(N)=O,-0.7306
1606,B-1607,"1,3-disiloxanediol, 1,1,3,3-tetramethyl-","InChI=1S/C4H14O3Si2/c1-8(2,5)7-9(3,4)6/h5-6H,1-4H3",PFEAZKFNWPIFCV-UHFFFAOYSA-N,C[Si](C)(O)O[Si](C)(C)O,-0.1796
1607,B-1608,"pentanedioic acid, dimethyl ester","InChI=1S/C7H12O4/c1-10-6(8)4-3-5-7(9)11-2/h3-5H2,1-2H3",XTDYIOOONNVFMA-UHFFFAOYSA-N,COC(=O)CCCC(=O)OC,-0.4337
1608,B-1609,"4,5-dithia-octandioic acid","InChI=1S/C6H10O4S2/c7-5(8)1-3-11-12-4-2-6(9)10/h1-4H2,(H,7,8)(H,9,10)",YCLSOMLVSHPPFV-UHFFFAOYSA-N,OC(=O)CCSSCCC(O)=O,-0.1944
1609,B-1610,2-heptyne,"InChI=1S/C7H12/c1-3-5-7-6-4-2/h3,5,7H2,1-2H3",AMSFEMSYKQQCHL-UHFFFAOYSA-N,CCCCC#CC,-2.7695
1610,B-1611,n-undecane,"InChI=1S/C11H24/c1-3-5-7-9-11-10-8-6-4-2/h3-11H2,1-2H3",RSJKGSCJYJTIGS-UHFFFAOYSA-N,CCCCCCCCCCC,-7.5505
1611,B-1612,"2,4,5-trimethylpyridine","InChI=1S/C8H11N/c1-6-4-8(3)9-5-7(6)2/h4-5H,1-3H3",MNDSSKADVGDFDF-UHFFFAOYSA-N,Cc1cc(C)c(C)cn1,-0.7824
1612,B-1613,4-dimethylaminopyridine,"InChI=1S/C7H10N2/c1-9(2)7-3-5-8-6-4-7/h3-6H,1-2H3/p+1",VHYFNPMBLIVWCW-UHFFFAOYSA-O,CN(C)c1cc[nH+]cc1,-0.2062
1613,B-1614,"pyridine, 2-ethyl-6-methyl-","InChI=1S/C8H11N/c1-3-8-6-4-5-7(2)9-8/h4-6H,3H2,1-2H3",SFSXNVBMAODLGN-UHFFFAOYSA-N,CCc1cccc(C)n1,-0.8234
1614,B-1615,1-hydroxy-cyclohexanecarboxylic acid,"InChI=1S/C7H12O3/c8-6(9)7(10)4-2-1-3-5-7/h10H,1-5H2,(H,8,9)",BPOVRAAUERBWFK-UHFFFAOYSA-N,OC(=O)C1(O)CCCCC1,-0.3328
1615,B-1616,"phenol, 4-chloro-2,6-dimethyl-","InChI=1S/C8H9ClO/c1-5-3-7(9)4-6(2)8(5)10/h3-4,10H,1-2H3",VWYKSJIPZHRLNO-UHFFFAOYSA-N,Cc1cc(Cl)cc(C)c1O,-1.6763
1616,B-1617,"pteridine, 6-chloro-",InChI=1S/C6H3ClN4/c7-5-2-9-6-4(11-5)1-8-3-10-6/h1-3H,YAVYBQFUSWPIQK-UHFFFAOYSA-N,Clc1cnc2ncncc2n1,-1.1247
1617,B-1618,"pteridine, 7-chloro-",InChI=1S/C6H3ClN4/c7-5-2-9-4-1-8-3-10-6(4)11-5/h1-3H,AANUQVPVSJJCRI-UHFFFAOYSA-N,Clc1cnc2cncnc2n1,-0.8749
1618,B-1619,"1,2-benzenediol, 4-(2-propenyl)-","InChI=1S/C9H10O2/c1-2-3-7-4-5-8(10)9(11)6-7/h2,4-6,10-11H,1,3H2",FHEHIXJLCWUPCZ-UHFFFAOYSA-N,Oc1ccc(CC=C)cc1O,-0.7787
1619,B-1620,"1h-pyrazol-5-amine, 3-methyl-1-phenyl-","InChI=1S/C10H11N3/c1-8-7-10(11)13(12-8)9-5-3-2-4-6-9/h2-7H,11H2,1H3",FMKMKBLHMONXJM-UHFFFAOYSA-N,Cc1cc(N)n(n1)c2ccccc2,-0.9376
1620,B-1621,p-cyclohexylphenol,"InChI=1S/C12H16O/c13-12-8-6-11(7-9-12)10-4-2-1-3-5-10/h6-10,13H,1-5H2",OAHMVZYHIJQTQC-UHFFFAOYSA-N,Oc1ccc(cc1)C2CCCCC2,-3.468
1621,B-1622,cycloate,"InChI=1S/C11H21NOS/c1-3-12(11(13)14-4-2)10-8-6-5-7-9-10/h10H,3-9H2,1-2H3",DFCAFRGABIXSDS-UHFFFAOYSA-N,CCSC(=O)N(CC)C1CCCCC1,-3.4037
1622,B-1623,diphenyltin dichloride,InChI=1S/2C6H5.2ClH.Sn/c2*1-2-4-6-5-3-1;;;/h2*1-5H;2*1H;/q;;;;+2/p-2,ISXUHJXWYNONDI-UHFFFAOYSA-L,Cl[Sn](Cl)(c1ccccc1)c2ccccc2,-3.8373
1623,B-1624,1-butyl theobromine,"InChI=1S/C11H16N4O2/c1-4-5-6-15-10(16)8-9(12-7-13(8)2)14(3)11(15)17/h7H,4-6H2,1-3H3",ZCUPBJOZMPROIJ-UHFFFAOYSA-N,CCCCN1C(=O)N(C)c2ncn(C)c2C1=O,-1.6252
1624,B-1625,tolazamide,"InChI=1S/C14H21N3O3S/c1-12-6-8-13(9-7-12)21(19,20)16-14(18)15-17-10-4-2-3-5-11-17/h6-9H,2-5,10-11H2,1H3,(H2,15,16,18)",OUDSBRTVNLOZBN-UHFFFAOYSA-N,Cc1ccc(cc1)[S](=O)(=O)NC(=O)NN2CCCCCC2,-3.6778
1625,B-1626,peruvoside,"InChI=1S/C30H44O9/c1-16-24(33)26(36-3)25(34)27(38-16)39-19-6-10-29(15-31)18(13-19)4-5-22-21(29)7-9-28(2)20(8-11-30(22,28)35)17-12-23(32)37-14-17/h12,15-16,18-22,24-27,33-35H,4-11,13-14H2,1-3H3/t16?,18-,19+,20-,21?,22?,24-,25?,26?,27-,28-,29-,30+/m1/s1",PMTSPAGBAFCORP-DGORKHCUSA-N,COC1[C@H](O)C(C)O[C@H](O[C@H]2CC[C@@]3(C=O)[C@H](CCC4C3CC[C@]5(C)[C@H](CC[C@]45O)C6=CC(=O)OC6)C2)C1O,-3.1373
1626,B-1627,"2,2-dimethyl-1-butanol","InChI=1S/C6H14O/c1-4-6(2,3)5-7/h7H,4-5H2,1-3H3",XRMVWAKMXZNZIL-UHFFFAOYSA-N,CCC(C)(C)CO,-1.1286
1627,B-1628,"butanedioic acid, 2,3-diethyl-","InChI=1S/C8H14O4/c1-3-5(7(9)10)6(4-2)8(11)12/h5-6H,3-4H2,1-2H3,(H,9,10)(H,11,12)",KJXMXCRSMLOXBM-UHFFFAOYSA-N,CCC(C(CC)C(O)=O)C(O)=O,-0.8608
1628,B-1629,3-hydroxy-aspartic acid,"InChI=1S/C4H7NO5/c5-1(3(7)8)2(6)4(9)10/h1-2,6H,5H2,(H,7,8)(H,9,10)/t1-,2+/m0/s1",YYLQUHNPNCGKJQ-NHYDCYSISA-N,N[C@@H]([C@@H](O)C(O)=O)C(O)=O,-0.8271
1629,B-1630,"urea, tetraethyl-","InChI=1S/C9H20N2O/c1-5-10(6-2)9(12)11(7-3)8-4/h5-8H2,1-4H3",UWHSPZZUAYSGTB-UHFFFAOYSA-N,CCN(CC)C(=O)N(CC)CC,-0.6341
1630,B-1631,"l-leucine, n-acetyl-","InChI=1S/C8H15NO3/c1-5(2)4-7(8(11)12)9-6(3)10/h5,7H,4H2,1-3H3,(H,9,10)(H,11,12)/t7-/m0/s1",WXNXCEHXYPACJF-ZETCQYMHSA-N,CC(C)C[C@H](NC(C)=O)C(O)=O,-1.3301
1631,B-1632,"4,6-dihydroxypryimidine","InChI=1S/C4H4N2O2/c7-3-1-4(8)6-2-5-3/h1-2H,(H2,5,6,7,8)",DUFGYCAXVIUXIP-UHFFFAOYSA-N,OC1=CC(=O)NC=N1,-1.6516
1632,B-1633,"2,5-dihydroxybenzaldehyde","InChI=1S/C7H6O3/c8-4-5-3-6(9)1-2-7(5)10/h1-4,9-10H",CLFRCXCBWIQVRN-UHFFFAOYSA-N,Oc1ccc(O)c(C=O)c1,-1.0004
1633,B-1634,tranexamic acid,"InChI=1S/C8H15NO2/c9-5-6-1-3-7(4-2-6)8(10)11/h6-7H,1-5,9H2,(H,10,11)",GYDJEQRTZSCIOI-UHFFFAOYSA-N,NCC1CCC(CC1)C(O)=O,0.0255
1634,B-1635,"2,4-dimethylquinoline","InChI=1S/C11H11N/c1-8-7-9(2)12-11-6-4-3-5-10(8)11/h3-7H,1-2H3",ZTNANFDSJRRZRJ-UHFFFAOYSA-N,Cc1cc(C)c2ccccc2n1,-1.9424
1635,B-1636,"tetrachloro-1,2-benzenediol",InChI=1S/C6H2Cl4O2/c7-1-2(8)4(10)6(12)5(11)3(1)9/h11-12H,RRBMVWQICIXSEO-UHFFFAOYSA-N,Oc1c(O)c(Cl)c(Cl)c(Cl)c1Cl,-4.9629
1636,B-1637,"dl-alanine, n-benzoyl-","InChI=1S/C10H11NO3/c1-7(10(13)14)11-9(12)8-5-3-2-4-6-8/h2-7H,1H3,(H,11,12)(H,13,14)",UAQVHNZEONHPQG-UHFFFAOYSA-N,CC(NC(=O)c1ccccc1)C(O)=O,-1.6839
1637,B-1638,methyl n-benzoglycine,"InChI=1S/C10H11NO3/c1-14-9(12)7-11-10(13)8-5-3-2-4-6-8/h2-6H,7H2,1H3,(H,11,13)",XTKVNQKOTKPCKM-UHFFFAOYSA-N,COC(=O)CNC(=O)c1ccccc1,-1.0556
1638,B-1639,"10h-phenothiazine, 10-methyl-","InChI=1S/C13H11NS/c1-14-10-6-2-4-8-12(10)15-13-9-5-3-7-11(13)14/h2-9H,1H3",QXBUYALKJGBACG-UHFFFAOYSA-N,CN1c2ccccc2Sc3ccccc13,-5.5934
1639,B-1640,"1h-purin-6-amine, n-(phenylmethyl)-","InChI=1S/C12H11N5/c1-2-4-9(5-3-1)6-13-11-10-12(15-7-14-10)17-8-16-11/h1-5,7-8H,6H2,(H2,13,14,15,16,17)",NWBJYWHLCVSVIJ-UHFFFAOYSA-N,C(Nc1ncnc2nc[nH]c12)c3ccccc3,-3.5745
1640,B-1641,"benzoic acid, 4-hydroxy, octyl ester","InChI=1S/C15H22O3/c1-2-3-4-5-6-7-12-18-15(17)13-8-10-14(16)11-9-13/h8-11,16H,2-7,12H2,1H3",RIKCMEDSBFQFAL-UHFFFAOYSA-N,CCCCCCCCOC(=O)c1ccc(O)cc1,-4.2224
1641,B-1642,galaxolide,"InChI=1S/C18H26O/c1-11-9-19-10-13-7-15-16(8-14(11)13)18(5,6)12(2)17(15,3)4/h7-8,11-12H,9-10H2,1-6H3",ONKNPOPIGWHAQC-UHFFFAOYSA-N,CC1COCc2cc3c(cc12)C(C)(C)C(C)C3(C)C,-5.1693
1642,B-1643,homidium bromide [ban:inn],"InChI=1S/C21H19N3.BrH/c1-2-24-20-13-16(23)9-11-18(20)17-10-8-15(22)12-19(17)21(24)14-6-4-3-5-7-14;/h3-13,23H,2,22H2,1H3;1H",ZMMJGEGLRURXTF-UHFFFAOYSA-N,[Br-].CC[n+]1c2cc(N)ccc2c3ccc(N)cc3c1c4ccccc4,-1.2948
1643,B-1644,2-ethylhexyl diphenyl phosphate,"InChI=1S/C20H27O4P/c1-3-5-12-18(4-2)17-22-25(21,23-19-13-8-6-9-14-19)24-20-15-10-7-11-16-20/h6-11,13-16,18H,3-5,12,17H2,1-2H3",CGSLYBDCEGBZCG-UHFFFAOYSA-N,CCCCC(CC)CO[P](=O)(Oc1ccccc1)Oc2ccccc2,-5.2804
1644,B-1645,"3h-pyrazol-3-one, 4,4'-methylenebis[1,2-dihydro-","InChI=1S/C23H24N4O2/c1-16-20(22(28)26(24(16)3)18-11-7-5-8-12-18)15-21-17(2)25(4)27(23(21)29)19-13-9-6-10-14-19/h5-14H,15H2,1-4H3",QATHNKNPUVVKHK-UHFFFAOYSA-N,CN1N(C(=O)C(=C1C)CC2=C(C)N(C)N(C2=O)c3ccccc3)c4ccccc4,-2.9549
1645,B-1646,carminic acid,"InChI=1S/C22H20O13/c1-4-8-5(2-6(24)9(4)22(33)34)13(25)10-11(15(8)27)16(28)12(18(30)17(10)29)21-20(32)19(31)14(26)7(3-23)35-21/h2,7,14,19-21,23-24,26,28-32H,3H2,1H3,(H,33,34)/t7-,14-,19+,20-,21-/m1/s1",DGQLVPJVXFOQEV-NGOCYOHBSA-N,Cc1c(C(O)=O)c(O)cc2C(=O)c3c(O)c(O)c([C@H]4O[C@H](CO)[C@@H](O)[C@H](O)[C@H]4O)c(O)c3C(=O)c12,-2.5784
1646,B-1647,methyl naphthalenes (mixture of isomers),"InChI=1S/C11H10/c1-9-5-4-7-10-6-2-3-8-11(9)10/h2-8H,1H3",QPUYECUOLPXSFR-UHFFFAOYSA-N,Cc1cccc2ccccc12,-3.755
1647,B-1648,xylenes (isomer mixture),"InChI=1S/C8H10/c1-7-4-3-5-8(2)6-7/h3-6H,1-2H3",IVSZLXZYQVIEFR-UHFFFAOYSA-N,Cc1cccc(C)c1,-3.0007
1648,B-1649,tricresyl phosphate,"InChI=1S/C21H21O4P/c1-16-4-10-19(11-5-16)23-26(22,24-20-12-6-17(2)7-13-20)25-21-14-8-18(3)9-15-21/h4-15H,1-3H3",BOSMZFBHAYFUBJ-UHFFFAOYSA-N,Cc1ccc(O[P](=O)(Oc2ccc(C)cc2)Oc3ccc(C)cc3)cc1,-6.01
1649,B-1650,tetramethyl decynediol,"InChI=1S/C14H26O2/c1-9(2)11(4)12(5)14(16)8-7-10(3)13(6)15/h9-16H,1-6H3",WWPTYZFXUOTSDY-UHFFFAOYSA-N,CC(C)C(C)C(C)C(O)C#CC(C)C(C)O,-2.2756
1650,B-1651,carmine,"InChI=1S/C22H20O13/c1-4-8-5(2-6(24)9(4)22(33)34)13(25)10-11(15(8)27)16(28)12(18(30)17(10)29)21-20(32)19(31)14(26)7(3-23)35-21/h2,7,14,19-21,23-24,26,28-32H,3H2,1H3,(H,33,34)",DGQLVPJVXFOQEV-UHFFFAOYSA-N,Cc1c(C(O)=O)c(O)cc2C(=O)c3c(O)c(O)c(C4OC(CO)C(O)C(O)C4O)c(O)c3C(=O)c12,-2.5784
1651,B-1652,aloin,"InChI=1S/C21H22O9/c22-6-8-4-10-14(21-20(29)19(28)17(26)13(7-23)30-21)9-2-1-3-11(24)15(9)18(27)16(10)12(25)5-8/h1-5,13-14,17,19-26,28-29H,6-7H2/t13-,14-,17-,19+,20-,21+/m1/s1",AFHJQYHRLPMKHU-WEZNYRQKSA-N,OC[C@H]1O[C@H]([C@H](O)[C@@H](O)[C@@H]1O)[C@@H]2c3cccc(O)c3C(=O)c4c(O)cc(CO)cc24,-1.7025
1652,B-1653,niclosamide ethanolamine salt,"InChI=1S/C13H8Cl2N2O4.C2H7NO/c14-7-1-4-12(18)9(5-7)13(19)16-11-3-2-8(17(20)21)6-10(11)15;3-1-2-4/h1-6,18H,(H,16,19);4H,1-3H2",XYCDHXSQODHSLG-UHFFFAOYSA-N,NCCO.Oc1ccc(Cl)cc1C(=O)Nc2ccc(cc2Cl)[N+]([O-])=O,-3.5891
1653,B-1654,trifenmorph,"InChI=1S/C23H23NO/c1-4-10-20(11-5-1)23(21-12-6-2-7-13-21,22-14-8-3-9-15-22)24-16-18-25-19-17-24/h1-15H,16-19H2",ZJMLMBICUVVJDX-UHFFFAOYSA-N,C1CN(CCO1)C(c2ccccc2)(c3ccccc3)c4ccccc4,-7.2168
1654,B-1655,dinoterb,"InChI=1S/C10H12N2O5/c1-10(2,3)7-4-6(11(14)15)5-8(9(7)13)12(16)17/h4-5,13H,1-3H3",IIPZYDQGBIWLBU-UHFFFAOYSA-N,CC(C)(C)c1cc(cc(c1O)[N+]([O-])=O)[N+]([O-])=O,-4.7274
1655,B-1656,4-(4-nitrophenylazo)phenol,"InChI=1S/C12H9N3O3/c16-12-7-3-10(4-8-12)14-13-9-1-5-11(6-2-9)15(17)18/h1-8,13H",ISHCVXKNSGUMPL-UHFFFAOYSA-N,[O-][N+](=O)c1ccc(NN=C2C=CC(=O)C=C2)cc1,-4.796
1656,B-1657,2-pyridinecarboxamide,"InChI=1S/C6H6N2O/c7-6(9)5-3-1-2-4-8-5/h1-4H,(H2,7,9)",IBBMAWULFFBRKK-UHFFFAOYSA-N,NC(=O)c1ccccn1,0.1685
1657,B-1658,heptadecyl alcohol,"InChI=1S/C17H36O/c1-2-3-4-5-6-7-8-9-10-11-12-13-14-15-16-17-18/h18H,2-17H2,1H3",GOQYKNQRPGWPLP-UHFFFAOYSA-N,CCCCCCCCCCCCCCCCCO,-7.506
1658,B-1659,"2,6-dimethyl-n-nitrosomorpholine","InChI=1S/C6H12N2O2/c1-5-3-8(7-9)4-6(2)10-5/h5-6H,3-4H2,1-2H3",DPYMAXOKJUBANR-UHFFFAOYSA-N,CC1CN(CC(C)O1)N=O,-0.0655
1659,B-1660,dimethyl isophthalate,"InChI=1S/C10H10O4/c1-13-9(11)7-4-3-5-8(6-7)10(12)14-2/h3-6H,1-2H3",VNGOYPQMJFJDLV-UHFFFAOYSA-N,COC(=O)c1cccc(c1)C(=O)OC,-2.8258
1660,B-1661,"pyridine, 2,3,6-trimethyl-","InChI=1S/C8H11N/c1-6-4-5-7(2)9-8(6)3/h4-5H,1-3H3",UTBIMNXEDGNJFE-UHFFFAOYSA-N,Cc1ccc(C)c(C)n1,-0.5893
1661,B-1662,diepoxybutane,"InChI=1S/C4H6O2/c1-3(5-1)4-2-6-4/h3-4H,1-2H2",ZFIVKAOQEXOYFY-UHFFFAOYSA-N,C1OC1C2CO2,1.065
1662,B-1663,5-indanol,"InChI=1S/C9H10O/c10-9-5-4-7-2-1-3-8(7)6-9/h4-6,10H,1-3H2",PEHSSTUGJUBZBI-UHFFFAOYSA-N,Oc1ccc2CCCc2c1,-1.3285
1663,B-1664,"1,4-dichloro-2-butene(cis)","InChI=1S/C4H6Cl2/c5-3-1-2-4-6/h1-2H,3-4H2/b2-1-",FQDIANVAWVHZIR-UPHRSURJSA-N,ClC\C=C/CCl,-2.3333
1664,B-1665,"piperidine, 3-ethyl-,","InChI=1S/C7H15N/c1-2-7-5-3-4-6-8-7/h7-8H,2-6H2,1H3/t7-/m1/s1",QBBKKFZGCDJDQK-SSDOTTSWSA-N,CC[C@@H]1CCCCN1,-0.3463
1665,B-1666,"cyclohexanol, 5-methyl-2-(1-methylethyl)-","InChI=1S/C10H20O/c1-7(2)9-5-4-8(3)6-10(9)11/h7-11H,4-6H2,1-3H3",NOOLISFMXDJSKH-UHFFFAOYSA-N,CC(C)C1CCC(C)CC1O,-2.5706
1666,B-1667,"cyclohexanone, 2-(1-cyclohexen-1-yl)-","InChI=1S/C12H18O/c13-12-9-5-4-8-11(12)10-6-2-1-3-7-10/h6,11H,1-5,7-9H2",GVNVAWHJIKLAGL-UHFFFAOYSA-N,O=C1CCCCC1C2=CCCCC2,-2.7739999999999996
1667,B-1668,2-(acetyloxy)-4-bromo-benzoic acid,"InChI=1S/C9H7BrO4/c1-5(11)14-8-3-2-6(10)4-7(8)9(12)13/h2-4H,1H3,(H,12,13)",VRJBEVQGJOSGOX-UHFFFAOYSA-N,CC(=O)Oc1ccc(Br)cc1C(O)=O,-2.5895
1668,B-1669,"d-methionine, n-acetyl-","InChI=1S/C7H13NO3S/c1-5(9)8-6(7(10)11)3-4-12-2/h6H,3-4H2,1-2H3,(H,8,9)(H,10,11)",XUYPXLNMDZIRQH-UHFFFAOYSA-N,CSCCC(NC(C)=O)C(O)=O,0.2055
1669,B-1670,1-phenylethanol,"InChI=1S/C8H10O/c1-7(9)8-5-3-2-4-6-8/h2-7,9H,1H3",WAPNOHKVXSQRPX-UHFFFAOYSA-N,CC(O)c1ccccc1,-0.9205
1670,B-1671,"n,n-diethyl succinamic acid","InChI=1S/C8H15NO3/c1-3-9(4-2)7(10)5-6-8(11)12/h3-6H2,1-2H3,(H,11,12)",XILORGWKMLOGKF-UHFFFAOYSA-N,CCN(CC)C(=O)CCC(O)=O,-0.7937
1671,B-1672,carbofuran,"InChI=1S/C12H15NO3/c1-12(2)7-8-5-4-6-9(10(8)16-12)15-11(14)13-3/h4-6H,7H2,1-3H3,(H,13,14)",DUEPRVBVGDRKAG-UHFFFAOYSA-N,CNC(=O)Oc1cccc2CC(C)(C)Oc12,-2.8398
1672,B-1673,"urea, (4-methoxyphenyl)-","InChI=1S/C8H10N2O2/c1-12-7-4-2-6(3-5-7)10-8(9)11/h2-5H,1H3,(H3,9,10,11)",PGUKYDVWVXRPKK-UHFFFAOYSA-N,COc1ccc(NC(N)=O)cc1,-1.5917
1673,B-1674,4-methoxy-2-nitrophenol,"InChI=1S/C7H7NO4/c1-12-5-2-3-7(9)6(4-5)8(10)11/h2-4,9H,1H3",YBUGOACXDPDUIR-UHFFFAOYSA-N,COc1ccc(O)c(c1)[N+]([O-])=O,-2.8409
1674,B-1675,1-propoxy-2-propanol,"InChI=1S/C6H14O2/c1-3-4-8-5-6(2)7/h6-7H,3-5H2,1-2H3",FENFUOGYJVOCRY-UHFFFAOYSA-N,CCCOCC(C)O,0.9275
1675,B-1676,3-penten-2-ol,"InChI=1S/C5H10O/c1-3-4-5(2)6/h3-6H,1-2H3/b4-3+",GJYMQFMQRRNLCY-ONEGZZNKSA-N,C/C=C/C(C)O,0.0152
1676,B-1677,2-methyl-4-chlorophenol,"InChI=1S/C7H7ClO/c1-5-4-6(8)2-3-7(5)9/h2-4,9H,1H3",RHPUJHQBPORFGV-UHFFFAOYSA-N,Cc1cc(Cl)ccc1O,-1.5519999999999998
1677,B-1678,"4,6-dichloro-o-cresol","InChI=1S/C7H6Cl2O/c1-4-2-5(8)3-6(9)7(4)10/h2-3,10H,1H3",WJQZZLQMLJPKQH-UHFFFAOYSA-N,Cc1cc(Cl)cc(Cl)c1O,-2.0439
1678,B-1679,"benzamide, 3-(aminosulfonyl)-","InChI=1S/C7H8N2O3S/c8-7(10)5-2-1-3-6(4-5)13(9,11)12/h1-4H,(H2,8,10)(H2,9,11,12)",AJVBPNRMKNARPG-UHFFFAOYSA-N,NC(=O)c1cccc(c1)[S](N)(=O)=O,-2.1554
1679,B-1680,"2-propenoic acid, 3,3-dibromo-","InChI=1S/C3H2Br2O2/c4-2(5)1-3(6)7/h1H,(H,6,7)",VWWPGQPTCCQNIO-UHFFFAOYSA-N,OC(=O)C=C(Br)Br,-0.8358
1680,B-1681,trifluralin,"InChI=1S/C13H16F3N3O4/c1-3-5-17(6-4-2)12-10(18(20)21)7-9(13(14,15)16)8-11(12)19(22)23/h7-8H,3-6H2,1-2H3",ZSDSQXJSNMTJDA-UHFFFAOYSA-N,CCCN(CCC)c1c(cc(cc1[N+]([O-])=O)C(F)(F)F)[N+]([O-])=O,-6.2606
1681,B-1682,"urea, n,n''-ethylidenebis-","InChI=1S/C4H10N4O2/c1-2(7-3(5)9)8-4(6)10/h2H,1H3,(H3,5,7,9)(H3,6,8,10)",MIWFLWHJKFXSDI-UHFFFAOYSA-N,CC(NC(N)=O)NC(N)=O,-0.5916
1682,B-1683,"hydrazinecarboxamide, 2-cyclohexylidene-","InChI=1S/C7H13N3O/c8-7(11)10-9-6-4-2-1-3-5-6/h1-5H2,(H3,8,10,11)",KZDDDHJBINUIKQ-UHFFFAOYSA-N,NC(=O)NN=C1CCCCC1,-1.4127
1683,B-1684,"2-naphthalenebutanoic acid, .gamma.-oxo-","InChI=1S/C14H12O3/c15-13(7-8-14(16)17)12-6-5-10-3-1-2-4-11(10)9-12/h1-6,9H,7-8H2,(H,16,17)",GZKLCZIMSAHQDR-UHFFFAOYSA-N,OC(=O)CCC(=O)c1ccc2ccccc2c1,-3.8533
1684,B-1685,daminozide,"InChI=1S/C6H12N2O3/c1-8(2)7-5(9)3-4-6(10)11/h3-4H2,1-2H3,(H,7,9)(H,10,11)",NOQGZXFMHARMLW-UHFFFAOYSA-N,CN(C)NC(=O)CCC(O)=O,-0.2046
1685,B-1686,pentrinitrol,"InChI=1S/C5H9N3O10/c9-1-5(2-16-6(10)11,3-17-7(12)13)4-18-8(14)15/h9H,1-4H2",BRBAEHHXGZRCBK-UHFFFAOYSA-N,OCC(CO[N+]([O-])=O)(CO[N+]([O-])=O)CO[N+]([O-])=O,-1.585
1686,B-1687,atratone,"InChI=1S/C9H17N5O/c1-5-10-7-12-8(11-6(2)3)14-9(13-7)15-4/h6H,5H2,1-4H3,(H2,10,11,12,13,14)",PXWUKZGIHQRDHL-UHFFFAOYSA-N,CCNc1nc(NC(C)C)nc(OC)n1,-2.0696
1687,B-1688,"2,4-pentadienenitrile","InChI=1S/C5H5N/c1-2-3-4-5-6/h2-4H,1H2/b4-3-",STSRVFAXSLNLLI-ARJAWSKDSA-N,C=C\C=C/C#N,-0.7221
1688,B-1689,clonazepam,"InChI=1S/C15H10ClN3O3/c16-12-4-2-1-3-10(12)15-11-7-9(19(21)22)5-6-13(11)18-14(20)8-17-15/h1-7H,8H2,(H,18,20)",DGBIGWXXNGSACT-UHFFFAOYSA-N,[O-][N+](=O)c1ccc2NC(=O)CN=C(c3ccccc3Cl)c2c1,-3.4993
1690,B-1691,malaoxon,"InChI=1S/C10H19O7PS/c1-5-16-9(11)7-8(10(12)17-6-2)19-18(13,14-3)15-4/h8H,5-7H2,1-4H3",WSORODGWGUUOBO-UHFFFAOYSA-N,CCOC(=O)CC(S[P](=O)(OC)OC)C(=O)OCC,-1.6223
1691,B-1692,1-heptanethiol,"InChI=1S/C7H16S/c1-2-3-4-5-6-7-8/h8H,2-7H2,1H3",VPIAKHNXCOTPAY-UHFFFAOYSA-N,CCCCCCCS,-4.1549
1692,B-1693,aldicarb sulfoxide,"InChI=1S/C7H14N2O3S/c1-7(2,13(4)11)5-9-12-6(10)8-3/h5H,1-4H3,(H,8,10)/b9-5+",BXPMAGSOWXBZHS-WEVVVXLNSA-N,CNC(=O)O\N=C\C(C)(C)[S](C)=O,-0.8673
1693,B-1694,aldicarb sulfone,"InChI=1S/C7H14N2O4S/c1-7(2,14(4,11)12)5-9-13-6(10)8-3/h5H,1-4H3,(H,8,10)/b9-5+",YRRKLBAKDXSTNC-WEVVVXLNSA-N,CNC(=O)O\N=C\C(C)(C)[S](C)(=O)=O,-1.3469
1694,B-1695,"1,2-dichloro-1,1-difluoroethane","InChI=1S/C2H2Cl2F2/c3-1-2(4,5)6/h1H2",SKDFWEPBABSFMG-UHFFFAOYSA-N,FC(F)(Cl)CCl,-2.2007
1695,B-1696,2-undecanol,"InChI=1S/C11H24O/c1-3-4-5-6-7-8-9-10-11(2)12/h11-12H,3-10H2,1-2H3",XMUJIPOFTAHSOK-UHFFFAOYSA-N,CCCCCCCCCC(C)O,-2.9418
1696,B-1697,"1-heptanol, 6-methyl-","InChI=1S/C8H18O/c1-8(2)6-4-3-5-7-9/h8-9H,3-7H2,1-2H3",BWDBEAQIHAEVLV-UHFFFAOYSA-N,CC(C)CCCCCO,-2.3038
1697,B-1698,"1,10-phenanthroline, 3,4,7,8-tetramethyl-","InChI=1S/C16H16N2/c1-9-7-17-15-13(11(9)3)5-6-14-12(4)10(2)8-18-16(14)15/h5-8H,1-4H3",NPAXPTHCUCUHPT-UHFFFAOYSA-N,Cc1cnc2c(ccc3c(C)c(C)cnc23)c1C,-5.1939
1698,B-1699,doxepin,"InChI=1S/C19H21NO/c1-20(2)13-7-11-17-16-9-4-3-8-15(16)14-21-19-12-6-5-10-18(17)19/h3-6,8-12H,7,13-14H2,1-2H3/b17-11+",ODQWQRRAPPTVAG-GZTJUZNOSA-N,CN(C)CC\C=C1/c2ccccc2COc3ccccc13,-3.9469
1699,B-1700,ethylcyclohexane,"InChI=1S/C8H16/c1-2-8-6-4-3-5-7-8/h8H,2-7H2,1H3",IIEWJVIFRVWJOD-UHFFFAOYSA-N,CCC1CCCCC1,-4.2507
1700,B-1701,alpha-pinene oxide,"InChI=1S/C10H16O/c1-9(2)6-4-7(9)10(3)8(5-6)11-10/h6-8H,4-5H2,1-3H3",NQFUSWIGRKFAHK-UHFFFAOYSA-N,CC1(C)C2CC3OC3(C)C1C2,-2.5937
1701,B-1702,"1(3h)isobenzofuranone-3,3-dimethyl","InChI=1S/C10H10O2/c1-10(2)8-6-4-3-5-7(8)9(11)12-10/h3-6H,1-2H3",YFBZUWUJSCLVST-UHFFFAOYSA-N,CC1(C)OC(=O)c2ccccc12,-1.8684
1702,B-1703,p-phenylazophenol,"InChI=1S/C12H10N2O/c15-12-8-6-11(7-9-12)14-13-10-4-2-1-3-5-10/h1-9,13H",JTSBGMZPPPULTA-UHFFFAOYSA-N,O=C1C=CC(C=C1)=NNc2ccccc2,-3.3429
1703,B-1704,ioxynil,"InChI=1S/C7H3I2NO/c8-5-1-4(3-10)2-6(9)7(5)11/h1-2,11H",NRXQIUSYPAHGNM-UHFFFAOYSA-N,Oc1c(I)cc(cc1I)C#N,-3.8703
1704,B-1705,bromoxynil,"InChI=1S/C7H3Br2NO/c8-5-1-4(3-10)2-6(9)7(5)11/h1-2,11H",UPMXNNIRAGDFEH-UHFFFAOYSA-N,Oc1c(Br)cc(cc1Br)C#N,-3.3284
1705,B-1706,bromoxynil octanoate,"InChI=1S/C15H17Br2NO2/c1-2-3-4-5-6-7-14(19)20-15-12(16)8-11(10-18)9-13(15)17/h8-9H,2-7H2,1H3",DQKWXTIYGWPGOO-UHFFFAOYSA-N,CCCCCCCC(=O)Oc1c(Br)cc(cc1Br)C#N,-6.7023
1706,B-1707,"2-phenyl-4,5-dichloro-3-pyridazinone",InChI=1S/C10H6Cl2N2O/c11-8-6-13-14(10(15)9(8)12)7-4-2-1-3-5-7/h1-6H,VKWCOHVAHQOJGU-UHFFFAOYSA-N,ClC1=C(Cl)C(=O)N(N=C1)c2ccccc2,-3.3822
1707,B-1708,chloridazon,"InChI=1S/C10H8ClN3O/c11-9-8(12)6-13-14(10(9)15)7-4-2-1-3-5-7/h1-6H,12H2",WYKYKTKDBLFHCY-UHFFFAOYSA-N,NC1=C(Cl)C(=O)N(N=C1)c2ccccc2,-2.7436
1708,B-1709,"3,6-dichloropicolinic acid","InChI=1S/C6H3Cl2NO2/c7-3-1-2-4(8)9-5(3)6(10)11/h1-2H,(H,10,11)",HUBANNPOLNYSAD-UHFFFAOYSA-N,OC(=O)c1nc(Cl)ccc1Cl,-1.3884
1709,B-1710,6-methylchrysene,"InChI=1S/C19H14/c1-13-12-19-16-8-3-2-6-14(16)10-11-18(19)17-9-5-4-7-15(13)17/h2-12H,1H3",ASVDRLYVNFOSCI-UHFFFAOYSA-N,Cc1cc2c3ccccc3ccc2c4ccccc14,-6.5715
1710,B-1711,isopropyl nitrate,"InChI=1S/C3H7NO3/c1-3(2)7-4(5)6/h3H,1-2H3",GAPFWGOSHOCNBM-UHFFFAOYSA-N,CC(C)O[N+]([O-])=O,-1.4593
1711,B-1712,"1,1-dichlorofluoroethane","InChI=1S/C2H3Cl2F/c1-2(3,4)5/h1H3",FRCHKSNAZZFGCA-UHFFFAOYSA-N,CC(F)(Cl)Cl,-2.4448