,ID,Name,InChI,InChIKey,SMILES,Solubility
982,B-983,"2,4,6(1h,3h,5h)-pyrimidinetrione, 5-nitro-","InChI=1S/C4H3N3O5/c8-2-1(7(11)12)3(9)6-4(10)5-2/h1H,(H2,5,6,8,9,10)",ABICJYZKIYUWEE-UHFFFAOYSA-N,[O-][N+](=O)C1C(=O)NC(=O)NC1=O,-2.2840000000000003
983,B-984,santonin,"InChI=1S/C15H18O3/c1-8-10-4-6-15(3)7-5-11(16)9(2)12(15)13(10)18-14(8)17/h5,7-8,10,13H,4,6H2,1-3H3/t8-,10-,13-,15-/m0/s1",XJHDMGJURBVLLE-BOCCBSBMSA-N,C[C@H]1[C@@H]2CC[C@@]3(C)C=CC(=O)C(=C3[C@H]2OC1=O)C,-3.0905
984,B-985,epiandrosterone,"InChI=1S/C19H30O2/c1-18-9-7-13(20)11-12(18)3-4-14-15-5-6-17(21)19(15,2)10-8-16(14)18/h12-16,20H,3-11H2,1-2H3/t12-,13-,14-,15-,16-,18-,19-/m0/s1",QGXBDMJGAMFCBF-LUJOEAJASA-N,C[C@]12CC[C@H](O)C[C@@H]1CC[C@@H]3[C@@H]2CC[C@@]4(C)[C@H]3CCC4=O,-4.1577
985,B-986,ecgonine,"InChI=1S/C9H15NO3/c1-10-5-2-3-6(10)8(9(12)13)7(11)4-5/h5-8,11H,2-4H2,1H3,(H,12,13)/t5?,6?,7-,8+/m0/s1",PHMBVCPLDPDESM-RLXKETGRSA-N,CN1C2CCC1[C@H]([C@@H](O)C2)C(O)=O,-0.0173
986,B-987,fervenulin,"InChI=1S/C7H7N5O2/c1-11-5-4(8-3-9-10-5)6(13)12(2)7(11)14/h3H,1-2H3",RRTKVYSLIGQWCO-UHFFFAOYSA-N,CN1C(=O)N(C)c2nncnc2C1=O,-1.9849
987,B-988,osthole,"InChI=1S/C15H16O3/c1-10(2)4-7-12-13(17-3)8-5-11-6-9-14(16)18-15(11)12/h4-6,8-9H,7H2,1-3H3",MBRLOUHOWLUMFF-UHFFFAOYSA-N,COc1ccc2C=CC(=O)Oc2c1CC=C(C)C,-4.3087
988,B-989,binapacryl,"InChI=1S/C15H18N2O6/c1-5-10(4)12-7-11(16(19)20)8-13(17(21)22)15(12)23-14(18)6-9(2)3/h6-8,10H,5H2,1-4H3",ZRDUSMYWDRPZRM-UHFFFAOYSA-N,CCC(C)c1cc(cc(c1OC(=O)C=C(C)C)[N+]([O-])=O)[N+]([O-])=O,-5.5083
989,B-990,iridomyrmecin,"InChI=1S/C10H16O2/c1-6-3-4-8-7(2)10(11)12-5-9(6)8/h6-9H,3-5H2,1-2H3",LYEFRAMOOLOUKA-UHFFFAOYSA-N,CC1CCC2C(C)C(=O)OCC12,-1.9249
990,B-991,cinchonidine,"InChI=1S/C19H22N2O/c1-2-13-12-21-10-8-14(13)11-18(21)19(22)16-7-9-20-17-6-4-3-5-15(16)17/h2-7,9,13-14,18-19,22H,1,8,10-12H2",KMPWYEUPVWOPIM-UHFFFAOYSA-N,OC(C1CC2CCN1CC2C=C)c3ccnc4ccccc34,-3.1679
991,B-992,"pyrrolo[2,1-b]quinazolin-9(1h)-one,2,3-dihydro-3","InChI=1S/C11H10N2O2/c14-9-5-6-13-10(9)12-8-4-2-1-3-7(8)11(13)15/h1-4,9,14H,5-6H2/t9-/m0/s1",SDIVYZXRQHWCKF-VIFPVBQESA-N,O[C@H]1CCN2C(=O)c3ccccc3N=C12,-2.106
992,B-993,caulophylline,"InChI=1S/C12H16N2O/c1-13-6-9-5-10(8-13)11-3-2-4-12(15)14(11)7-9/h2-4,9-10H,5-8H2,1H3/t9-,10-/m0/s1",CULUKMPMGVXCEI-UWVGGRQHSA-N,CN1C[C@@H]2C[C@@H](C1)C3=CC=CC(=O)N3C2,0.6484
993,B-994,lumazine,"InChI=1S/C6H4N4O2/c11-5-3-4(8-2-1-7-3)9-6(12)10-5/h1-2H,(H2,8,9,10,11,12)",UYEUUXMDVNYCAM-UHFFFAOYSA-N,O=C1NC(=O)c2nccnc2N1,-2.1183
994,B-995,"1h-pyrrole-3-propanoic acid, 2,5-dihydro-4-methy","InChI=1S/C8H9NO4/c1-4-5(2-3-6(10)11)8(13)9-7(4)12/h2-3H2,1H3,(H,10,11)(H,9,12,13)",ZAFOEDODWZIXMO-UHFFFAOYSA-N,CC1=C(CCC(O)=O)C(=O)NC1=O,-0.6608
995,B-996,d-quercitol,"InChI=1S/C6H12O5/c7-2-1-3(8)5(10)6(11)4(2)9/h2-11H,1H2/t2-,3-,4+,5+/m1/s1",IMPKVMRTXBRHRB-MBMOQRBOSA-N,O[C@@H]1C[C@@H](O)[C@H](O)C(O)[C@H]1O,-0.1739
996,B-997,"azulene, 1,4-dimethyl-7-(1-methylethyl)-","InChI=1S/C15H18/c1-10(2)13-7-5-11(3)14-8-6-12(4)15(14)9-13/h5-10H,1-4H3",FWKQNCXZGNBPFD-UHFFFAOYSA-N,CC(C)c1ccc(C)c2ccc(C)c2c1,-5.4752
997,B-998,monotropitoside,"InChI=1S/C19H26O12/c1-27-17(26)8-4-2-3-5-10(8)30-19-16(25)14(23)13(22)11(31-19)7-29-18-15(24)12(21)9(20)6-28-18/h2-5,9,11-16,18-25H,6-7H2,1H3",VHUNCYDAXJGCLO-UHFFFAOYSA-N,COC(=O)c1ccccc1OC2OC(COC3OCC(O)C(O)C3O)C(O)C(O)C2O,-0.7418
998,B-999,1(2h)-isoquinolinone,"InChI=1S/C9H7NO/c11-9-8-4-2-1-3-7(8)5-6-10-9/h1-6H,(H,10,11)",VDBNYAPERZTOOF-UHFFFAOYSA-N,O=C1NC=Cc2ccccc12,-2.4842
999,B-1000,chrysarobin,"InChI=1S/C15H12O3/c1-8-5-10-7-9-3-2-4-11(16)13(9)15(18)14(10)12(17)6-8/h2-7,16-18H,1H3",JBGKVNQFVAJOGC-UHFFFAOYSA-N,Cc1cc(O)c2c(O)c3c(O)cccc3cc2c1,-3.0585
1000,B-1001,leucopterin,"InChI=1S/C6H5N5O3/c7-6-10-2-1(3(12)11-6)8-4(13)5(14)9-2/h(H,8,13)(H4,7,9,10,11,12,14)",SFLOGVVDXPCWGR-UHFFFAOYSA-N,NC1=NC(=O)C2=C(N1)NC(=O)C(=O)N2,-5.1655
1001,B-1002,atropic acid,"InChI=1S/C9H8O2/c1-7(9(10)11)8-5-3-2-4-6-8/h2-6H,1H2,(H,10,11)",ONPJWQSDZCGSQM-UHFFFAOYSA-N,OC(=O)C(=C)c1ccccc1,-2.0568
1002,B-1003,2-amino-1-phenyl-propan-1-ol,"InChI=1S/C9H13NO/c1-7(10)9(11)8-5-3-2-4-6-8/h2-7,9,11H,10H2,1H3/t7-,9+/m0/s1",DLNKOYKMWOXYQA-IONNQARKSA-N,C[C@H](N)[C@@H](O)c1ccccc1,-0.8786
1003,B-1004,alpha-d-glucose,"InChI=1S/C6H12O6/c7-1-2-3(8)4(9)5(10)6(11)12-2/h2-11H,1H2/t2-,3-,4+,5-,6+/m1/s1",WQZGKKKJIJFFOK-DVKNGEFBSA-N,OC[C@H]1O[C@H](O)[C@H](O)[C@@H](O)[C@@H]1O,0.4433
1004,B-1005,"1,3-cyclohexanedione, 5-phenyl-","InChI=1S/C12H12O2/c13-11-6-10(7-12(14)8-11)9-4-2-1-3-5-9/h1-5,8,10,13H,6-7H2/t10-/m1/s1",ZFVDSCASCRHXCP-SNVBAGLBSA-N,OC1=CC(=O)C[C@@H](C1)c2ccccc2,-2.5113
1005,B-1006,anabasine,"InChI=1S/C10H14N2/c1-2-7-12-10(5-1)9-4-3-6-11-8-9/h3-4,6,8,10,12H,1-2,5,7H2/t10-/m0/s1",MTXSIJUGVMTTMU-JTQLQIEISA-N,C1CC[C@H](NC1)c2cccnc2,0.7898
1006,B-1007,gentisyl alcohol,"InChI=1S/C7H8O3/c8-4-5-3-6(9)1-2-7(5)10/h1-3,8-10H,4H2",PUZSUVGRVHEUQO-UHFFFAOYSA-N,OCc1cc(O)ccc1O,0.8534
1007,B-1008,bayer 15080,"InChI=1S/C13H11N3O2/c17-13(10-4-2-1-3-5-10)15-14-11-6-8-12(16-18)9-7-11/h1-9,14H,(H,15,17)",ORLIFVYIUIQGOA-UHFFFAOYSA-N,O=Nc1ccc(NNC(=O)c2ccccc2)cc1,-4.6835
1008,B-1009,salinazid,"InChI=1S/C13H11N3O2/c17-12-4-2-1-3-11(12)9-15-16-13(18)10-5-7-14-8-6-10/h1-9,15H,(H,16,18)/b11-9-",CYKAGXAJJFUETC-LUAWRHEFSA-N,O=C(NN\C=C/1C=CC=CC1=O)c2ccncc2,-3.6835
1009,B-1010,"1h-indole, 2,3-dihydro-","InChI=1S/C8H9N/c1-2-4-8-7(3-1)5-6-9-8/h1-4,9H,5-6H2",LPAGFVYQRIESJQ-UHFFFAOYSA-N,C1Cc2ccccc2N1,-1.0427
1010,B-1011,"2-butenal, 2-methyl-, (e)-","InChI=1S/C5H8O/c1-3-5(2)4-6/h3-4H,1-2H3/b5-3+",ACWQBUSCFPJUPN-HWKANZROSA-N,C\C=C(/C)C=O,-0.527
1011,B-1012,"1,3-dioxolane, 2-methyl-","InChI=1S/C4H8O2/c1-4-5-2-3-6-4/h4H,2-3H2,1H3",HTWIZMNMTWYQRN-UHFFFAOYSA-N,CC1OCCO1,0.8789
1012,B-1013,norcamphor,"InChI=1S/C7H10O/c8-7-4-5-1-2-6(7)3-5/h5-6H,1-4H2",KPMKEVXVVHNIEY-UHFFFAOYSA-N,O=C1CC2CCC1C2,-1.7565
1013,B-1014,"3-hydroxy-4-oxo-4h-pyran-2,6-dicarboxylic acid","InChI=1S/C7H4O7/c8-2-1-3(6(10)11)14-5(4(2)9)7(12)13/h1,12-13H,(H,10,11)",SELRUPTWVICDPZ-UHFFFAOYSA-N,OC(O)=C1OC(=CC(=O)C1=O)C(O)=O,-1.3769999999999998
1014,B-1015,"ethanone, 1-(4-hydroxy-3-methoxyphenyl)-","InChI=1S/C9H10O3/c1-6(10)7-3-4-8(11)9(5-7)12-2/h3-5,11H,1-2H3",DFYRUELUNQRZTB-UHFFFAOYSA-N,COc1cc(ccc1O)C(C)=O,-1.5216
1015,B-1016,norvaline,"InChI=1S/C5H11NO2/c1-2-3-4(6)5(7)8/h4H,2-3,6H2,1H3,(H,7,8)/t4-/m1/s1",SNDPXSYFESPGGJ-SCSAIBSYSA-N,CCC[C@@H](N)C(O)=O,-0.0687
1016,B-1017,citraconic acid,"InChI=1S/C5H6O4/c1-3(5(8)9)2-4(6)7/h2H,1H3,(H,6,7)(H,8,9)/b3-2-",HNEGQIOMVPPMNR-IHWYPQMZSA-N,C\C(=C\C(O)=O)C(O)=O,0.7795
1017,B-1018,"phenol, 2-methyl-5-(1-methylethyl)-","InChI=1S/C10H14O/c1-7(2)9-5-4-8(3)10(11)6-9/h4-7,11H,1-3H3",RECUKUPTGUEGMW-UHFFFAOYSA-N,CC(C)c1ccc(C)c(O)c1,-2.0798
1018,B-1019,beta-eucaine,"InChI=1S/C15H21NO2/c1-11-9-13(10-15(2,3)16-11)18-14(17)12-7-5-4-6-8-12/h4-8,11,13,16H,9-10H2,1-3H3",ZYHGIAPHLSTGMX-UHFFFAOYSA-N,CC1CC(CC(C)(C)N1)OC(=O)c2ccccc2,-1.922
1019,B-1020,"acetic acid, oxo(phenylamino)-","InChI=1S/C8H7NO3/c10-7(8(11)12)9-6-4-2-1-3-5-6/h1-5H,(H,9,10)(H,11,12)",PQJZHMCWDKOPQG-UHFFFAOYSA-N,OC(=O)C(=O)Nc1ccccc1,-1.3019
1020,B-1021,n-benzyl-3-chloropropanamide,"InChI=1S/C10H12ClNO/c11-7-6-10(13)12-8-9-4-2-1-3-5-9/h1-5H,6-8H2,(H,12,13)",JPYQFYIEOUVJDU-UHFFFAOYSA-N,ClCCC(=O)NCc1ccccc1,-3.2959
1021,B-1022,"2-butenoic acid, 4-[(aminocarbonyl)amino]-4-oxo-","InChI=1S/C5H6N2O4/c6-5(11)7-3(8)1-2-4(9)10/h1-2H,(H,9,10)(H3,6,7,8,11)",GWGLGTKSTGSWGQ-UHFFFAOYSA-N,NC(=O)NC(=O)C=CC(O)=O,-1.9202
1022,B-1023,bis(ethylxanthogen),"InChI=1S/C6H10O2S4/c1-3-7-5(9)11-12-6(10)8-4-2/h3-4H2,1-2H3",FVIGODVHAVLZOO-UHFFFAOYSA-N,CCOC(=S)SSC(=S)OCC,-4.9432
1023,B-1024,5-nonanone,"InChI=1S/C9H18O/c1-3-5-7-9(10)8-6-4-2/h3-8H2,1-2H3",WSGCRAOTEDLMFQ-UHFFFAOYSA-N,CCCCC(=O)CCCC,-2.5935
1024,B-1025,trimethyleneoxide,InChI=1S/C3H6O/c1-2-4-3-1/h1-3H2,AHHWIHXENZJRFG-UHFFFAOYSA-N,C1COC1,1.236
1025,B-1026,methanedisulfonic acid,"InChI=1S/CH4O6S2/c2-8(3,4)1-9(5,6)7/h1H2,(H,2,3,4)(H,5,6,7)",OPUAWDUYWRUIIL-UHFFFAOYSA-N,O[S](=O)(=O)C[S](O)(=O)=O,1.1446
1026,B-1027,(z)-2-butenoic acid (isocrotonic acid),"InChI=1S/C4H6O2/c1-2-3-4(5)6/h2-3H,1H3,(H,5,6)/b3-2-",LDHQCZJRKDOVOX-IHWYPQMZSA-N,C\C=C/C(O)=O,1.065
1027,B-1028,isovaleric acid,"InChI=1S/C5H10O2/c1-4(2)3-5(6)7/h4H,3H2,1-2H3,(H,6,7)",GWYFCOCPABKNJV-UHFFFAOYSA-N,CC(C)CC(O)=O,-0.3996
1028,B-1029,4-aminopyridine,"InChI=1S/C5H6N2/c6-5-1-3-7-4-2-5/h1-4H,(H2,6,7)",NUKYPUAOHBNCPY-UHFFFAOYSA-N,Nc1ccncc1,-0.0529
1029,B-1030,2-aminopyridine,"InChI=1S/C5H6N2/c6-5-3-1-2-4-7-5/h1-4H,(H2,6,7)",ICSNLGPSRYBMBD-UHFFFAOYSA-N,Nc1ccccn1,0.9757
1030,B-1031,"1,4-dithiane",InChI=1S/C4H8S2/c1-2-6-4-3-5-1/h1-4H2,LOZWAPSEEHRYPG-UHFFFAOYSA-N,C1CSCCS1,-1.6029
1031,B-1032,suberic acid,"InChI=1S/C8H14O4/c9-7(10)5-3-1-2-4-6-8(11)12/h1-6H2,(H,9,10)(H,11,12)",TYFQFVWCELRYAO-UHFFFAOYSA-N,OC(=O)CCCCCCC(O)=O,-1.1673
1032,B-1033,tridecanedioic acid,"InChI=1S/C13H24O4/c14-12(15)10-8-6-4-2-1-3-5-7-9-11-13(16)17/h1-11H2,(H,14,15)(H,16,17)",DXNCZXXFRKPEPY-UHFFFAOYSA-N,OC(=O)CCCCCCCCCCCC(O)=O,-2.2119
1033,B-1034,di-2-chloroethyl sulfide,InChI=1S/C4H8Cl2S/c5-1-3-7-4-2-6/h1-4H2,QKSKPIVNLNLAAV-UHFFFAOYSA-N,ClCCSCCCl,-2.3666
1034,B-1035,"2,4-hexadienedioic acid,","InChI=1S/C6H6O4/c7-5(8)3-1-2-4-6(9)10/h1-4H,(H,7,8)(H,9,10)/b3-1-,4-2-",TXXHDPDFNKHHGW-CCAGOZQPSA-N,OC(=O)\C=C/C=C\C(O)=O,-2.8516
1035,B-1036,iodine cyanide,InChI=1S/CIN/c2-1-3,WPBXOELOQKLBDF-UHFFFAOYSA-N,IC#N,-0.6333
1036,B-1037,2-bromo-2-methylpropane,"InChI=1S/C4H9Br/c1-4(2,3)5/h1-3H3",RKSOPLXZQNSWAS-UHFFFAOYSA-N,CC(C)(C)Br,-2.3586
1037,B-1038,borneol,"InChI=1S/C10H18O/c1-9(2)7-4-5-10(9,3)8(11)6-7/h7-8,11H,4-6H2,1-3H3",DTGKSKDOIYIVQL-UHFFFAOYSA-N,CC1(C)C2CCC1(C)C(O)C2,-2.3202
1038,B-1039,"1,2,3-butanetricarboxylic acid, 2,3-dimethyl-","InChI=1S/C9H14O6/c1-8(2,6(12)13)9(3,7(14)15)4-5(10)11/h4H2,1-3H3,(H,10,11)(H,12,13)(H,14,15)",MJCJFUJXVGIUOD-UHFFFAOYSA-N,CC(C)(C(O)=O)C(C)(CC(O)=O)C(O)=O,-0.111
1039,B-1040,hydrocortisone tebutate,"InChI=1S/C27H40O6/c1-24(2,3)14-22(31)33-15-21(30)27(32)11-9-19-18-7-6-16-12-17(28)8-10-25(16,4)23(18)20(29)13-26(19,27)5/h12,18-20,23,29,32H,6-11,13-15H2,1-5H3",FNFPHNZQOKBKHN-UHFFFAOYSA-N,CC(C)(C)CC(=O)OCC(=O)C1(O)CCC2C3CCC4=CC(=O)CCC4(C)C3C(O)CC12C,-5.5111
1040,B-1041,tetranitromethane,"InChI=1S/CN4O8/c6-2(7)1(3(8)9,4(10)11)5(12)13",NYTOUQBROMCLBJ-UHFFFAOYSA-N,[O-][N+](=O)C([N+]([O-])=O)([N+]([O-])=O)[N+]([O-])=O,-2.3381
1041,B-1042,pholcodine,"InChI=1S/C23H30N2O4/c1-24-7-6-23-16-3-4-18(26)22(23)29-21-19(5-2-15(20(21)23)14-17(16)24)28-13-10-25-8-11-27-12-9-25/h2-5,16-18,22,26H,6-14H2,1H3/t16?,17-,18+,22+,23+/m1/s1",GPFAJKDEDBRFOS-SLITUTQKSA-N,CN1CC[C@]23[C@H]4Oc5c(OCCN6CCOCC6)ccc(C[C@@H]1C2C=C[C@@H]4O)c35,-1.2994
1042,B-1043,"2,4,6(1h,3h,5h)-pyrimidinetrione, 5-ethyl-5-(1-p","InChI=1S/C11H17N3O3/c1-2-11(14-6-4-3-5-7-14)8(15)12-10(17)13-9(11)16/h2-7H2,1H3,(H2,12,13,15,16,17)",ZFVLHMJCLWOOOY-UHFFFAOYSA-N,CCC1(N2CCCCC2)C(=O)NC(=O)NC1=O,-2.1562
1043,B-1044,chlorobenzilate,"InChI=1S/C16H14Cl2O3/c1-2-21-15(19)16(20,11-3-7-13(17)8-4-11)12-5-9-14(18)10-6-12/h3-10,20H,2H2,1H3",RAPBNVDSDCTNRC-UHFFFAOYSA-N,CCOC(=O)C(O)(c1ccc(Cl)cc1)c2ccc(Cl)cc2,-4.3982
1044,B-1045,diosgenin,"InChI=1S/C27H42O3/c1-16-7-12-27(29-15-16)17(2)24-23(30-27)14-22-20-6-5-18-13-19(28)8-10-25(18,3)21(20)9-11-26(22,24)4/h5,16-17,19-24,28H,6-15H2,1-4H3/t16-,17+,19+,20-,21+,22+,23+,24+,25+,26+,27-/m1/s1",WQLVFSAGQJTQCK-VKROHFNGSA-N,C[C@@H]1CC[C@@]2(OC1)O[C@H]3C[C@H]4[C@@H]5CC=C6C[C@@H](O)CC[C@]6(C)[C@H]5CC[C@]4(C)[C@H]3[C@@H]2C,-7.3166
1045,B-1046,raffinose,"InChI=1S/C18H32O16/c19-1-5-8(22)11(25)13(27)16(31-5)30-3-7-9(23)12(26)14(28)17(32-7)34-18(4-21)15(29)10(24)6(2-20)33-18/h5-17,19-29H,1-4H2/t5-,6-,7-,8+,9-,10-,11+,12+,13-,14-,15+,16+,17-,18+/m1/s1",MUPFEKGTMRGPLJ-ZQSKZDJDSA-N,OC[C@H]1O[C@H](OC[C@H]2O[C@H](O[C@]3(CO)O[C@H](CO)[C@@H](O)[C@@H]3O)[C@H](O)[C@@H](O)[C@@H]2O)[C@H](O)[C@@H](O)[C@H]1O,-0.3962
1046,B-1047,tripropyl phosphate,"InChI=1S/C9H21O4P/c1-4-7-11-14(10,12-8-5-2)13-9-6-3/h4-9H2,1-3H3",RXPQRKFMDQNODS-UHFFFAOYSA-N,CCCO[P](=O)(OCCC)OCCC,-1.5412
1047,B-1048,2-methyl-2-butene,"InChI=1S/C5H10/c1-4-5(2)3/h4H,1-3H3",BKOOMYPCSUNDGP-UHFFFAOYSA-N,CC=C(C)C,-2.5604
1048,B-1049,1-chloro-2-methylpropene,"InChI=1S/C4H7Cl/c1-4(2)3-5/h3H,1-2H3",KWISWUFGPUHDRY-UHFFFAOYSA-N,CC(C)=CCl,-1.9569
1049,B-1050,methallyl alcohol,"InChI=1S/C4H8O/c1-4(2)3-5/h5H,1,3H2,2H3",BYDRTKVGBRTTIT-UHFFFAOYSA-N,CC(=C)CO,0.4298
1050,B-1051,2-butanethiol,"InChI=1S/C4H10S/c1-3-4(2)5/h4-5H,3H2,1-2H3",LOCHFZBWPCLPAN-UHFFFAOYSA-N,CCC(C)S,-1.8346
1051,B-1052,"2,3-dimethyl-1,3-butadiene","InChI=1S/C6H10/c1-5(2)6(3)4/h1,3H2,2,4H3",SDJHPPZKZZWAKF-UHFFFAOYSA-N,CC(=C)C(C)=C,-2.4014
1052,B-1053,"2,3-butanediol","InChI=1S/C4H10O2/c1-3(5)4(2)6/h3-6H,1-2H3/t3-,4+",OWBTYPJTUOEWEK-ZXZARUISSA-N,C[C@@H](O)[C@H](C)O,1.0452
1053,B-1054,acetoin,"InChI=1S/C4H8O2/c1-3(5)4(2)6/h3,5H,1-2H3",ROWKJAVDOGWPAT-UHFFFAOYSA-N,CC(O)C(C)=O,1.055
1054,B-1055,abietic acid,"InChI=1S/C20H30O2/c1-13(2)14-6-8-16-15(12-14)7-9-17-19(16,3)10-5-11-20(17,4)18(21)22/h7,12-13,16-17H,5-6,8-11H2,1-4H3,(H,21,22)/t16-,17+,19+,20+/m0/s1",RSWGJHLUYNHPMX-ONCXSQPRSA-N,CC(C)C1=CC2=CC[C@@H]3[C@](C)(CCC[C@@]3(C)C(O)=O)[C@H]2CC1,-3.7959
1055,B-1056,"3,11-dihydroxy-androstan-17-one","InChI=1S/C19H30O3/c1-18-8-7-12(20)9-11(18)3-4-13-14-5-6-16(22)19(14,2)10-15(21)17(13)18/h11-15,17,20-21H,3-10H2,1-2H3/t11?,12-,13?,14?,15?,17?,18?,19?/m0/s1",PIXFHVWJOVNKQK-HJJNUGAVSA-N,CC12CC[C@H](O)CC1CCC3C4CCC(=O)C4(C)CC(O)C23,-3.5932
1056,B-1057,"benzeneacetic acid, .alpha.-hydroxy-.alpha.-meth","InChI=1S/C9H10O3/c1-9(12,8(10)11)7-5-3-2-4-6-7/h2-6,12H,1H3,(H,10,11)",NWCHELUCVWSRRS-UHFFFAOYSA-N,CC(O)(C(O)=O)c1ccccc1,-0.8949
1057,B-1058,sulfamethylthiazole,"InChI=1S/C10H11N3O2S2/c1-7-6-16-10(12-7)13-17(14,15)9-4-2-8(11)3-5-9/h2-6H,11H2,1H3,(H,12,13)",KJVQYDYPDFFJMP-UHFFFAOYSA-N,Cc1csc(N[S](=O)(=O)c2ccc(N)cc2)n1,-2.1293
1058,B-1059,sulfisomidine,"InChI=1S/C12H14N4O2S/c1-8-7-12(15-9(2)14-8)16-19(17,18)11-5-3-10(13)4-6-11/h3-7H,13H2,1-2H3,(H,14,15,16)",YZMCKZRAOLZXAZ-UHFFFAOYSA-N,Cc1cc(N[S](=O)(=O)c2ccc(N)cc2)nc(C)n1,-2.2364
1059,B-1060,methyl malonic acid,"InChI=1S/C4H6O4/c1-2(3(5)6)4(7)8/h2H,1H3,(H,5,6)(H,7,8)",ZIYVHBGGAOATLY-UHFFFAOYSA-N,CC(C(O)=O)C(O)=O,0.7597
1060,B-1061,dl-valine,"InChI=1S/C5H11NO2/c1-3(2)4(6)5(7)8/h3-4H,6H2,1-2H3,(H,7,8)",KZSNJWFQEVHDMF-UHFFFAOYSA-N,CC(C)C(N)C(O)=O,-0.1971
1061,B-1062,equilenin,"InChI=1S/C18H18O2/c1-18-9-8-14-13-5-3-12(19)10-11(13)2-4-15(14)16(18)6-7-17(18)20/h2-5,10,16,19H,6-9H2,1H3",PDRGHUMCVRDZLQ-UHFFFAOYSA-N,CC12CCc3c(ccc4cc(O)ccc34)C1CCC2=O,-5.2436
1062,B-1063,"3-acetyl-4,5-dihydro-2(3h)-furanone","InChI=1S/C6H8O3/c1-4(7)5-2-3-9-6(5)8/h5H,2-3H2,1H3",OMQHDIHZSDEIFH-UHFFFAOYSA-N,CC(=O)C1CCOC1=O,0.1934
1063,B-1064,beta-peltatin,"InChI=1S/C22H22O8/c1-25-14-5-10(6-15(26-2)20(14)27-3)17-12-7-16-21(30-9-29-16)19(23)13(12)4-11-8-28-22(24)18(11)17/h5-7,11,17-18,23H,4,8-9H2,1-3H3/t11-,17+,18-/m0/s1",HLBPOYVRLSXWJJ-PDSMFRHLSA-N,COc1cc(cc(OC)c1OC)[C@H]2[C@@H]3[C@H](COC3=O)Cc4c(O)c5OCOc5cc24,-4.5035
1064,B-1065,fluorescein,"InChI=1S/C20H12O5/c21-11-5-7-15-17(9-11)24-18-10-12(22)6-8-16(18)20(15)14-4-2-1-3-13(14)19(23)25-20/h1-10,21-22H",GNBHRKFJIUUOQI-UHFFFAOYSA-N,Oc1ccc2c(Oc3cc(O)ccc3C24OC(=O)c5ccccc45)c1,-3.8226
1065,B-1066,"6-formyl-2,3-dimethoxybenzoic acid","InChI=1S/C10H10O5/c1-14-7-4-3-6(5-11)8(10(12)13)9(7)15-2/h3-5H,1-2H3,(H,12,13)",HVXXOIGTXJOVON-UHFFFAOYSA-N,COc1ccc(C=O)c(C(O)=O)c1OC,-1.9247
1066,B-1067,dioxypyramidon,"InChI=1S/C13H17N3O3/c1-10(17)15(4)16(11-8-6-5-7-9-11)13(19)12(18)14(2)3/h5-9H,1-4H3",IRTZMJWVZQYURE-UHFFFAOYSA-N,CN(C)C(=O)C(=O)N(N(C)C(C)=O)c1ccccc1,-0.5345
1067,B-1068,"androstan-3-one, 17-hydroxy-, (5alpha,17beta)-","InChI=1S/C19H30O2/c1-18-9-7-13(20)11-12(18)3-4-14-15-5-6-17(21)19(15,2)10-8-16(14)18/h12,14-17,21H,3-11H2,1-2H3/t12-,14-,15-,16-,17-,18-,19-/m0/s1",NVKAWKQGWWIWPM-ABEVXSGRSA-N,C[C@]12CC[C@H]3[C@@H](CC[C@H]4CC(=O)CC[C@]34C)[C@@H]1CC[C@@H]2O,0.2571
1068,B-1069,"8-quinolinol, 5,7-dibromo-","InChI=1S/C9H5Br2NO/c10-6-4-7(11)9(13)8-5(6)2-1-3-12-8/h1-4,13H",ZDASUJMDVPTNTF-UHFFFAOYSA-N,Oc1c(Br)cc(Br)c2cccnc12,-4.1938
1069,B-1070,hydroquinine,"InChI=1S/C20H26N2O2/c1-3-13-12-22-9-7-14(13)10-19(22)20(23)16-6-8-21-18-5-4-15(24-2)11-17(16)18/h4-6,8,11,13-14,19-20,23H,3,7,9-10,12H2,1-2H3",LJOQGZACKSYWCH-UHFFFAOYSA-N,CCC1CN2CCC1CC2C(O)c3ccnc4ccc(OC)cc34,-3.0514
1070,B-1071,"1,6-naphthalenedisulfonic acid","InChI=1S/C10H8O6S2/c11-17(12,13)8-4-5-9-7(6-8)2-1-3-10(9)18(14,15)16/h1-6H,(H,11,12,13)(H,14,15,16)",HEWDOWUUTBCVJP-UHFFFAOYSA-N,O[S](=O)(=O)c1ccc2c(cccc2[S](O)(=O)=O)c1,0.5402
1071,B-1072,propranolol,"InChI=1S/C16H21NO2/c1-12(2)17-10-14(18)11-19-16-9-5-7-13-6-3-4-8-15(13)16/h3-9,12,14,17-18H,10-11H2,1-2H3",AQHHHDLHHXJYJD-UHFFFAOYSA-N,CC(C)NCC(O)COc1cccc2ccccc12,-3.6202
1072,B-1073,tryptazan,"InChI=1S/C10H11N3O2/c11-7(10(14)15)5-9-6-3-1-2-4-8(6)12-13-9/h1-4,7H,5,11H2,(H,12,13)(H,14,15)",IFEKQNAXDMZERW-UHFFFAOYSA-N,NC(Cc1[nH]nc2ccccc12)C(O)=O,-1.4091
1073,B-1074,"2,3-dimethylphenol","InChI=1S/C8H10O/c1-6-4-3-5-8(9)7(6)2/h3-5,9H,1-2H3",QWBBPBRQALCEIZ-UHFFFAOYSA-N,Cc1cccc(O)c1C,-1.4271
1074,B-1075,"butanedioic acid, 2,3-dihydroxy-","InChI=1S/C4H6O6/c5-1(3(7)8)2(6)4(9)10/h1-2,5-6H,(H,7,8)(H,9,10)",FEWJPZIEWOKRBE-UHFFFAOYSA-N,OC(C(O)C(O)=O)C(O)=O,0.2148
1075,B-1076,allaric acid,"InChI=1S/C6H10O8/c7-1(3(9)5(11)12)2(8)4(10)6(13)14/h1-4,7-10H,(H,11,12)(H,13,14)/t1-,2+,3-,4+",DSLZVSRJTYRBFB-GNSDDBTRSA-N,O[C@H]([C@H](O)[C@H](O)C(O)=O)[C@@H](O)C(O)=O,-0.3225
1076,B-1077,sodium gluconate,"InChI=1S/C6H12O7.Na/c7-1-2(8)3(9)4(10)5(11)6(12)13;/h2-5,7-11H,1H2,(H,12,13);/q;+1/p-1",UPMFZISCCZSDND-UHFFFAOYSA-M,[Na+].OCC(O)C(O)C(O)C(O)C([O-])=O,0.4321
1077,B-1078,cupric gluconate,"InChI=1S/2C6H12O7.Cu/c2*7-1-2(8)3(9)4(10)5(11)6(12)13;/h2*2-5,7-11H,1H2,(H,12,13);/q;;+2/p-2/t2*2-,3-,4+,5-;/m11./s1",OCUCCJIRFHNWBP-IYEMJOQQSA-L,[Cu++].OC[C@@H](O)[C@@H](O)[C@H](O)[C@@H](O)C([O-])=O.OC[C@@H](O)[C@@H](O)[C@H](O)[C@@H](O)C([O-])=O,-0.1798
1078,B-1079,thiophene-2-carboxylic acid,"InChI=1S/C5H4O2S/c6-5(7)4-2-1-3-8-4/h1-3H,(H,6,7)",QERYCTSHXKAMIS-UHFFFAOYSA-N,OC(=O)c1sccc1,-1.2327
1079,B-1080,1-methyl-2-isopropylbenzene,"InChI=1S/C10H14/c1-8(2)10-7-5-4-6-9(10)3/h4-8H,1-3H3",WWRCMNKATXZARA-UHFFFAOYSA-N,CC(C)c1ccccc1C,-3.7606
1080,B-1081,"ethanedione, bis(2-hydroxy-5-nitrophenyl)-","InChI=1S/C14H8N2O8/c17-11-3-1-7(15(21)22)5-9(11)13(19)14(20)10-6-8(16(23)24)2-4-12(10)18/h1-6,17-18H",MLHGVVVOOIXMQL-UHFFFAOYSA-N,Oc1ccc(cc1C(=O)C(=O)c2cc(ccc2O)[N+]([O-])=O)[N+]([O-])=O,-3.5214
1081,B-1082,"ethanone, 1-(2,3,4-trihydroxyphenyl)-","InChI=1S/C8H8O4/c1-4(9)5-2-3-6(10)8(12)7(5)11/h2-3,10-12H,1H3",XIROXSOOOAZHLL-UHFFFAOYSA-N,CC(=O)c1ccc(O)c(O)c1O,-2.0216
1082,B-1083,trimellitic acid,"InChI=1S/C9H6O6/c10-7(11)4-1-2-5(8(12)13)6(3-4)9(14)15/h1-3H,(H,10,11)(H,12,13)(H,14,15)",ARCGXLSVLAOJQL-UHFFFAOYSA-N,OC(=O)c1ccc(C(O)=O)c(c1)C(O)=O,-1.0003
1083,B-1084,"3,4-dinitrobenzoic acid","InChI=1S/C7H4N2O6/c10-7(11)4-1-2-5(8(12)13)6(3-4)9(14)15/h1-3H,(H,10,11)",OMVRRHJJQILIJX-UHFFFAOYSA-N,OC(=O)c1ccc(c(c1)[N+]([O-])=O)[N+]([O-])=O,-1.5005
1084,B-1085,n-(aminocarbonyl)-2-(1-methylethyl)4-pentenamide,"InChI=1S/C9H16N2O2/c1-4-5-7(6(2)3)8(12)11-9(10)13/h4,6-7H,1,5H2,2-3H3,(H3,10,11,12,13)",KSUUMAWCGDNLFK-UHFFFAOYSA-N,CC(C)C(CC=C)C(=O)NC(N)=O,-2.7469
1085,B-1086,4(1h)-quinolinone,"InChI=1S/C9H7NO/c11-9-5-6-10-8-4-2-1-3-7(8)9/h1-6H,(H,10,11)",PMZDQRJGMBOQBF-UHFFFAOYSA-N,O=C1C=CNc2ccccc12,-1.3659999999999999
1086,B-1087,anthranol,"InChI=1S/C14H10O/c15-14-12-7-3-1-5-10(12)9-11-6-2-4-8-13(11)14/h1-9,15H",AUKRYONWZHRJRE-UHFFFAOYSA-N,Oc1c2ccccc2cc3ccccc13,-4.7329
1087,B-1088,"1,1-diphenylethylene","InChI=1S/C14H12/c1-12(13-8-4-2-5-9-13)14-10-6-3-7-11-14/h2-11H,1H2",ZMYIIHDQURVDRB-UHFFFAOYSA-N,C=C(c1ccccc1)c2ccccc2,-4.4363
1088,B-1089,flufenamic acid,"InChI=1S/C14H10F3NO2/c15-14(16,17)9-4-3-5-10(8-9)18-12-7-2-1-6-11(12)13(19)20/h1-8,18H,(H,19,20)",LPEPZBJOKDYZAD-UHFFFAOYSA-N,OC(=O)c1ccccc1Nc2cccc(c2)C(F)(F)F,-4.4906
1089,B-1090,"1,2-cycloheptanedione, dioxime","InChI=1S/C7H12N2O2/c10-8-6-4-2-1-3-5-7(6)9-11/h8,10H,1-5H2",MYDALHRLYFBVMU-UHFFFAOYSA-N,ONC1=C(CCCCC1)N=O,-1.4249
1090,B-1091,"2h-1-benzopyran-2-one, 7-methoxy-","InChI=1S/C10H8O3/c1-12-8-4-2-7-3-5-10(11)13-9(7)6-8/h2-6H,1H3",LIIALPBMIOVAHH-UHFFFAOYSA-N,COc1ccc2C=CC(=O)Oc2c1,-3.1221