,ID,Name,InChI,InChIKey,SMILES,Solubility
2155,B-2156,"butanedioic acid, (diphenylmethylene)-, 1-ethyl","InChI=1S/C19H18O4/c1-2-23-19(22)16(13-17(20)21)18(14-9-5-3-6-10-14)15-11-7-4-8-12-15/h3-12H,2,13H2,1H3,(H,20,21)",DLPKPLGMFNWETI-UHFFFAOYSA-N,CCOC(=O)C(CC(O)=O)=C(c1ccccc1)c2ccccc2,-2.1908
2156,B-2157,"6h-purin-6-one, 2-chloro-1,7-dihydro-7-methyl-,","InChI=1S/C6H7ClN6/c1-13-2-9-4-3(13)5(12-8)11-6(7)10-4/h2H,8H2,1H3,(H,10,11,12)",DSBMZQSBWWASSE-UHFFFAOYSA-N,Cn1cnc2nc(Cl)nc(NN)c12,-1.1427
2157,B-2158,"4h-pyran-3,5-dicarboxylic acid, 2,6-dimethyl-4-o","InChI=1S/C13H16O6/c1-5-17-12(15)9-7(3)19-8(4)10(11(9)14)13(16)18-6-2/h5-6H2,1-4H3",JISSLTOKQRHSMJ-UHFFFAOYSA-N,CCOC(=O)C1=C(C)OC(=C(C(=O)OCC)C1=O)C,-1.5255
2158,B-2159,"benzenamine, 2-iodo-5-nitro-","InChI=1S/C6H5IN2O2/c7-5-2-1-4(9(10)11)3-6(5)8/h1-3H,8H2",VKQOHFHGWCXKOA-UHFFFAOYSA-N,Nc1cc(ccc1I)[N+]([O-])=O,-4.4216
2159,B-2160,"l-glutamic acid, n,n-bis(2-cyanoethyl)-","InChI=1S/C11H15N3O4/c12-5-1-7-14(8-2-6-13)9(11(17)18)3-4-10(15)16/h9H,1-4,7-8H2,(H,15,16)(H,17,18)",JQXSGQACFFFOIU-UHFFFAOYSA-N,OC(=O)CCC(N(CCC#N)CCC#N)C(O)=O,-0.2275
2160,B-2161,"dl-methionine, n,n-bis(2-cyanoethyl)-","InChI=1S/C11H17N3O2S/c1-17-9-4-10(11(15)16)14(7-2-5-12)8-3-6-13/h10H,2-4,7-9H2,1H3,(H,15,16)",JXPCJFWAMGPAQN-UHFFFAOYSA-N,CSCCC(N(CCC#N)CCC#N)C(O)=O,-1.3279
2161,B-2162,"propanoic acid, 2-hydroxy-, octyl ester","InChI=1S/C11H22O3/c1-3-4-5-6-7-8-9-14-11(13)10(2)12/h10,12H,3-9H2,1-2H3",SFBIZPBTKROSDE-UHFFFAOYSA-N,CCCCCCCCOC(=O)C(C)O,-1.2726
2162,B-2163,"2h-1,4-benzoxazin-3(4h)-one","InChI=1S/C8H7NO2/c10-8-5-11-7-4-2-1-3-6(7)9-8/h1-4H,5H2,(H,9,10)",QRCGFTXRXYMJOS-UHFFFAOYSA-N,O=C1COc2ccccc2N1,-2.5716
2163,B-2164,"2-butenedioic acid, 2-propyl-, (e)-","InChI=1S/C7H10O4/c1-2-3-5(7(10)11)4-6(8)9/h4H,2-3H2,1H3,(H,8,9)(H,10,11)/b5-4+",CCKSYUMJLIMSQK-SNAWJCMRSA-N,CCC\C(=C/C(O)=O)C(O)=O,-1.1538
2164,B-2165,"1,4-piperazinedicarboxylic acid, diethyl ester","InChI=1S/C10H18N2O4/c1-3-15-9(13)11-5-7-12(8-6-11)10(14)16-4-2/h3-8H2,1-2H3",NAEAAGULDNVNCW-UHFFFAOYSA-N,CCOC(=O)N1CCN(CC1)C(=O)OCC,-0.7288
2165,B-2166,"2,6-di-sec-butylphenol","InChI=1S/C14H22O/c1-5-10(3)12-8-7-9-13(14(12)15)11(4)6-2/h7-11,15H,5-6H2,1-4H3/t10-,11+",FHTGJZOULSYEOB-PHIMTYICSA-N,CC[C@@H](C)c1cccc([C@@H](C)CC)c1O,-5.0593
2166,B-2167,"pyrene, 1-nitro-",InChI=1S/C16H9NO2/c18-17(19)14-9-7-12-5-4-10-2-1-3-11-6-8-13(14)16(12)15(10)11/h1-9H,ALRLPDGCPYIVHP-UHFFFAOYSA-N,[O-][N+](=O)c1ccc2ccc3cccc4ccc1c2c34,-7.3213
2167,B-2168,"hydrazinecarboxamide, 1-ethyl-2-[(5-nitro-2-fura","InChI=1S/C8H10N4O4/c1-2-11(8(9)13)10-5-6-3-4-7(16-6)12(14)15/h3-5H,2H2,1H3,(H2,9,13)/b10-5+",JGPNCLKRECLYTO-BJMVGYQFSA-N,CCN(/N=C/c1oc(cc1)[N+]([O-])=O)C(N)=O,-2.9395
2168,B-2169,6-phenylcaproic acid,"InChI=1S/C12H16O2/c13-12(14)10-6-2-5-9-11-7-3-1-4-8-11/h1,3-4,7-8H,2,5-6,9-10H2,(H,13,14)",JTXZPQIXIXYMDY-UHFFFAOYSA-N,OC(=O)CCCCCc1ccccc1,-2.6026
2169,B-2170,3-methyl-3-heptanol,"InChI=1S/C8H18O/c1-4-6-7-8(3,9)5-2/h9H,4-7H2,1-3H3",PQOSNJHBSNZITJ-UHFFFAOYSA-N,CCCCC(C)(O)CC,-1.7356
2170,B-2171,"1-cyclopentene-1-carboxylic acid, 2,3,3-trimethy","InChI=1S/C9H14O2/c1-6-7(8(10)11)4-5-9(6,2)3/h4-5H2,1-3H3,(H,10,11)",CVPXQMUHAZMTEO-UHFFFAOYSA-N,CC1=C(CCC1(C)C)C(O)=O,-2.8871
2171,B-2172,chlorpyrifos methyl,"InChI=1S/C7H7Cl3NO3PS/c1-12-15(16,13-2)14-7-5(9)3-4(8)6(10)11-7/h3H,1-2H3",HRBKVYFZANMGRE-UHFFFAOYSA-N,CO[P](=S)(OC)Oc1nc(Cl)c(Cl)cc1Cl,-4.831
2172,B-2173,triamcinolone hexacetonide,"InChI=1S/C30H41FO7/c1-25(2,3)15-24(35)36-16-22(34)30-23(37-26(4,5)38-30)13-20-19-9-8-17-12-18(32)10-11-27(17,6)29(19,31)21(33)14-28(20,30)7/h10-12,19-21,23,33H,8-9,13-16H2,1-7H3/t19-,20-,21-,23+,27-,28-,29-,30+/m0/s1",TZIZWYVVGLXXFV-FLRHRWPCSA-N,CC(C)(C)CC(=O)OCC(=O)[C@@]12OC(C)(C)O[C@@H]1C[C@H]3[C@@H]4CCC5=CC(=O)C=C[C@]5(C)[C@@]4(F)[C@@H](O)C[C@]23C,-5.1244
2173,B-2174,"cyclopropane, ethoxy-","InChI=1S/C5H10O/c1-2-6-5-3-4-5/h5H,2-4H2,1H3",LZTCEQQSARXBHE-UHFFFAOYSA-N,CCOC1CC1,-0.6407
2174,B-2175,"1h-purine-1-acetic acid, 2,3,6,7-tetrahydro-3,7-","InChI=1S/C9H10N4O4/c1-11-4-10-7-6(11)8(16)13(3-5(14)15)9(17)12(7)2/h4H,3H2,1-2H3,(H,14,15)/p-1",YCTSCXLOPJCPDH-UHFFFAOYSA-M,Cn1cnc2N(C)C(=O)N(CC([O-])=O)C(=O)c12,-1.3769
2175,B-2176,"3,6-dimethylpiperazine-2,5-dione","InChI=1S/C6H10N2O2/c1-3-5(9)8-4(2)6(10)7-3/h3-4H,1-2H3,(H,7,10)(H,8,9)/t3-,4+",WWISPHBAYBECQZ-ZXZARUISSA-N,C[C@@H]1NC(=O)[C@@H](C)NC1=O,-0.1528
2176,B-2177,"2-pyrrolidinecarboxamide, 5-oxo-n-phenyl-","InChI=1S/C11H12N2O2/c14-10-7-6-9(13-10)11(15)12-8-4-2-1-3-5-8/h1-5,9H,6-7H2,(H,12,15)(H,13,14)",DLHWPLFJAJCANU-UHFFFAOYSA-N,O=C1CCC(N1)C(=O)Nc2ccccc2,-1.3278
2177,B-2178,"phenol, 4-(phenylthio)-","InChI=1S/C12H10OS/c13-10-6-8-12(9-7-10)14-11-4-2-1-3-5-11/h1-9,13H",XAYCNCYFKLSMGR-UHFFFAOYSA-N,Oc1ccc(Sc2ccccc2)cc1,-2.7745
2178,B-2179,"ethane, 1,1'-[oxybis(methyleneoxy)]bis-","InChI=1S/C6H14O3/c1-3-7-5-9-6-8-4-2/h3-6H2,1-2H3",ANPYLYUCGAFKNQ-UHFFFAOYSA-N,CCOCOCOCC,-0.1277
2179,B-2180,"naphtho[1,2-c]furan-1(3h)-one","InChI=1S/C12H8O2/c13-12-11-9(7-14-12)6-5-8-3-1-2-4-10(8)11/h1-6H,7H2",ARSOXHMEZHBPOS-UHFFFAOYSA-N,O=C1OCc2ccc3ccccc3c12,-3.3062
2180,B-2181,"glycine, n-(2-furanylcarbonyl)-","InChI=1S/C7H7NO4/c9-6(10)4-8-7(11)5-2-1-3-12-5/h1-3H,4H2,(H,8,11)(H,9,10)",KSPQDMRTZZYQLM-UHFFFAOYSA-N,OC(=O)CNC(=O)c1occc1,-0.7272
2181,B-2182,"5-thiazolecarboxylic acid, 2-[[(4-aminophenyl)su","InChI=1S/C10H9N3O4S2/c11-6-1-3-7(4-2-6)19(16,17)13-10-12-5-8(18-10)9(14)15/h1-5H,11H2,(H,12,13)(H,14,15)",UVWBGXXTQBAIOZ-UHFFFAOYSA-N,Nc1ccc(cc1)[S](=O)(=O)Nc2sc(cn2)C(O)=O,-2.8741
2182,B-2183,altraric acid,"InChI=1S/C6H10O8/c7-1(3(9)5(11)12)2(8)4(10)6(13)14/h1-4,7-10H,(H,11,12)(H,13,14)/t1-,2+,3-,4-/m0/s1",DSLZVSRJTYRBFB-YCAKELIYSA-N,O[C@H]([C@H](O)[C@H](O)C(O)=O)[C@H](O)C(O)=O,-1.4774
2183,B-2184,"butanedioic acid, 2,2-diethyl-","InChI=1S/C8H14O4/c1-3-8(4-2,7(11)12)5-6(9)10/h3-5H2,1-2H3,(H,9,10)(H,11,12)",WKRCUUPMCASSBN-UHFFFAOYSA-N,CCC(CC)(CC(O)=O)C(O)=O,-0.7962
2184,B-2185,"benzenepropanoic acid, .alpha.,.beta.-dihydroxy-","InChI=1S/C9H10O4/c10-7(8(11)9(12)13)6-4-2-1-3-5-6/h1-5,7-8,10-11H,(H,12,13)",BNOUUNAFHCJIJD-UHFFFAOYSA-N,OC(C(O)c1ccccc1)C(O)=O,-0.3063
2185,B-2186,"hydrocinnamic acid, .alpha.-ethylidene-","InChI=1S/C11H12O2/c1-2-10(11(12)13)8-9-6-4-3-5-7-9/h2-7H,8H2,1H3,(H,12,13)",LUHNRLWMHQQYAM-UHFFFAOYSA-N,CC=C(Cc1ccccc1)C(O)=O,-2.5648
2186,B-2187,"benzoic acid, 4-[(3-pyridinylcarbonyl)amino]-","InChI=1S/C13H10N2O3/c16-12(10-2-1-7-14-8-10)15-11-5-3-9(4-6-11)13(17)18/h1-8H,(H,15,16)(H,17,18)",LWFBUVHQVCTCKN-UHFFFAOYSA-N,OC(=O)c1ccc(NC(=O)c2cccnc2)cc1,-3.0832
2187,B-2188,"2-propanone, 1,1-diethoxy-","InChI=1S/C7H14O3/c1-4-9-7(6(3)8)10-5-2/h7H,4-5H2,1-3H3",SDMOBEHDSJVJHU-UHFFFAOYSA-N,CCOC(OCC)C(C)=O,-0.2059
2188,B-2189,"tyrosine, 3-hydroxy-","InChI=1S/C9H11NO4/c10-6(9(13)14)3-5-1-2-7(11)8(12)4-5/h1-2,4,6,11-12H,3,10H2,(H,13,14)",WTDRDQBEARUVNC-UHFFFAOYSA-N,NC(Cc1ccc(O)c(O)c1)C(O)=O,-1.5959
2189,B-2190,"1,8,15,22-tetraazacyclooctacosane-2,9,16,23-tetr","InChI=1S/C24H44N4O4/c29-21-13-5-1-9-17-25-22(30)14-6-2-11-19-27-24(32)16-8-4-12-20-28-23(31)15-7-3-10-18-26-21/h1-20H2,(H,25,30)(H,26,29)(H,27,32)(H,28,31)",LAIGWNLGTIDKPL-UHFFFAOYSA-N,O=C1CCCCCNC(=O)CCCCCNC(=O)CCCCCNC(=O)CCCCCN1,-2.8126
2190,B-2191,"isopropyl-4,4'-dichlorobenzilate","InChI=1S/C17H16Cl2O3/c1-11(2)22-16(20)17(21,12-3-7-14(18)8-4-12)13-5-9-15(19)10-6-13/h3-11,21H,1-2H3",AXGUBXVWZBFQGA-UHFFFAOYSA-N,CC(C)OC(=O)C(O)(c1ccc(Cl)cc1)c2ccc(Cl)cc2,-5.3544
2191,B-2192,endrocide (endox) (coumatetralyl),"InChI=1S/C19H16O3/c20-18-15-9-3-4-11-16(15)22-19(21)17(18)14-10-5-7-12-6-1-2-8-13(12)14/h1-4,6,8-9,11,14,21H,5,7,10H2",KIGBUEKEZHTCDR-UHFFFAOYSA-N,OC1=C(C2CCCc3ccccc23)C(=O)c4ccccc4O1,-4.8638
2192,B-2193,"ethanol, 2-mercapto-, 1-acetate","InChI=1S/C4H8O2S/c1-4(5)6-2-3-7/h7H,2-3H2,1H3",YDLAHBBJAGGIJZ-UHFFFAOYSA-N,CC(=O)OCCS,-1.5
2193,B-2194,terbacil,"InChI=1S/C9H13ClN2O2/c1-5-6(10)7(13)12(8(14)11-5)9(2,3)4/h1-4H3,(H,11,14)",NBQCNZYJJMBDKY-UHFFFAOYSA-N,CC1=C(Cl)C(=O)N(C(=O)N1)C(C)(C)C,-2.4845
2194,B-2195,"thioperoxydiphosphoric acid, tetramethyl ester","InChI=1S/C4H12O4P2S4/c1-5-9(11,6-2)13-14-10(12,7-3)8-4/h1-4H3",HUTQNWSTEVZUML-UHFFFAOYSA-N,CO[P](=S)(OC)SS[P](=S)(OC)OC,-4.3981
2195,B-2196,"d-xylose, (aminocarbonyl)hydrazone","InChI=1S/C6H13N3O5/c7-6(14)9-8-1-3(11)5(13)4(12)2-10/h1,3-5,10-13H,2H2,(H3,7,9,14)/t3-,4+,5+/m0/s1",HJUOUZOJKPIETD-VPENINKCSA-N,NC(=O)NN=C[C@H](O)[C@@H](O)[C@H](O)CO,-0.1288
2196,B-2197,"propanoic acid, 3-phosphono-","InChI=1S/C3H7O5P/c4-3(5)1-2-9(6,7)8/h1-2H2,(H,4,5)(H2,6,7,8)",NLBSQHGCGGFVJW-UHFFFAOYSA-N,OC(=O)CC[P](O)(O)=O,0.5007
2197,B-2198,".beta.-d-glucopyranose, 4-o-.beta.-d-galactopyra","InChI=1S/C12H22O11/c13-1-3-5(15)6(16)9(19)12(22-3)23-10-4(2-14)21-11(20)8(18)7(10)17/h3-20H,1-2H2/t3-,4-,5+,6+,7-,8-,9-,10-,11-,12+/m1/s1",GUBGYTABKSRVRQ-DCSYEGIMSA-N,OC[C@H]1O[C@@H](O[C@H]2[C@H](O)[C@@H](O)[C@H](O)O[C@@H]2CO)[C@H](O)[C@@H](O)[C@H]1O,-0.8167
2198,B-2199,d-limonene,"InChI=1S/C10H16/c1-8(2)10-6-4-9(3)5-7-10/h4,10H,1,5-7H2,2-3H3/t10-/m0/s1",XMGQYMWWDOXHJM-JTQLQIEISA-N,CC(=C)[C@@H]1CCC(=CC1)C,-3.9944
2199,B-2200,"ethanamine, 2,2'-thiobis[n,n-diethyl-","InChI=1S/C12H28N2S/c1-5-13(6-2)9-11-15-12-10-14(7-3)8-4/h5-12H2,1-4H3",LYFNBXZVKYDWNX-UHFFFAOYSA-N,CCN(CC)CCSCCN(CC)CC,-2.3663
2200,B-2201,narcotine,"InChI=1S/C22H23NO7/c1-23-8-7-11-9-14-20(29-10-28-14)21(27-4)15(11)17(23)18-12-5-6-13(25-2)19(26-3)16(12)22(24)30-18/h5-6,9,17-18H,7-8,10H2,1-4H3",AKNNEGZIBPJZJG-UHFFFAOYSA-N,COc1ccc2C(OC(=O)c2c1OC)C3N(C)CCc4cc5OCOc5c(OC)c34,-3.9729
2201,B-2202,5-oxo-3-phenyl-hexanoic acid,"InChI=1S/C12H14O3/c1-9(13)7-11(8-12(14)15)10-5-3-2-4-6-10/h2-6,11H,7-8H2,1H3,(H,14,15)",DUGWBMXFSCILOV-UHFFFAOYSA-N,CC(=O)CC(CC(O)=O)c1ccccc1,-1.4463
2202,B-2203,"benzenamine, n-ethyl-n,2,4,6-tetranitro-","InChI=1S/C8H7N5O8/c1-2-9(13(20)21)8-6(11(16)17)3-5(10(14)15)4-7(8)12(18)19/h3-4H,2H2,1H3",AWOPOGMEMRZDQH-UHFFFAOYSA-N,CCN(c1c(cc(cc1[N+]([O-])=O)[N+]([O-])=O)[N+]([O-])=O)[N+]([O-])=O,-3.7007
2203,B-2204,"benzenamine, 4,4'-(1,2-ethynediyl)bis-","InChI=1S/C14H12N2/c15-13-7-3-11(4-8-13)1-2-12-5-9-14(16)10-6-12/h3-10H,15-16H2",WAUKJWLKPXRNKT-UHFFFAOYSA-N,Nc1ccc(cc1)C#Cc2ccc(N)cc2,-2.4326
2204,B-2205,"benzoic acid, 2-(2-hydroxybenzoyl)-","InChI=1S/C14H10O4/c15-12-8-4-3-7-11(12)13(16)9-5-1-2-6-10(9)14(17)18/h1-8,15H,(H,17,18)",HNRPIUDTZLIYEC-UHFFFAOYSA-N,OC(=O)c1ccccc1C(=O)c2ccccc2O,-2.3428
2205,B-2206,"phthalic acid, bis(2,2,2-trinitroethyl) ester","InChI=1S/C12H8N6O16/c19-9(33-5-11(13(21)22,14(23)24)15(25)26)7-3-1-2-4-8(7)10(20)34-6-12(16(27)28,17(29)30)18(31)32/h1-4H,5-6H2",KPHWKKRARXZEEU-UHFFFAOYSA-N,[O-][N+](=O)C(COC(=O)c1ccccc1C(=O)OCC([N+]([O-])=O)([N+]([O-])=O)[N+]([O-])=O)([N+]([O-])=O)[N+]([O-])=O,-3.5782
2206,B-2207,"2-butanol, 1,1,1-trichloro-","InChI=1S/C4H7Cl3O/c1-2-3(8)4(5,6)7/h3,8H,2H2,1H3",MJFSFJZFTQSCGW-UHFFFAOYSA-N,CCC(O)C(Cl)(Cl)Cl,-0.9481
2207,B-2208,2-buten-1-ol,"InChI=1S/C4H8O/c1-2-3-4-5/h2-3,5H,4H2,1H3/b3-2-",WCASXYBKJHWFMY-IHWYPQMZSA-N,C\C=C/CO,1.1420000000000001
2208,B-2209,"1,3-dioxolane, 2-(2-methylpropyl)-","InChI=1S/C7H14O2/c1-6(2)5-7-8-3-4-9-7/h6-7H,3-5H2,1-2H3",NLSSIIZCHYEPNV-UHFFFAOYSA-N,CC(C)CC1OCCO1,-0.3695
2209,B-2210,"2(1h)-azecinone, octahydro-","InChI=1S/C9H17NO/c11-9-7-5-3-1-2-4-6-8-10-9/h1-8H2,(H,10,11)",KBLFLMTZLPQGIF-UHFFFAOYSA-N,O=C1CCCCCCCCN1,-1.0737
2210,B-2211,"methanamine, n-chloro-","InChI=1S/CH4ClN/c1-3-2/h3H,1H3",QXJIABOUHLYVHP-UHFFFAOYSA-N,CNCl,0.2806
2211,B-2212,chlordimeform,"InChI=1S/C10H13ClN2/c1-8-6-9(11)4-5-10(8)12-7-13(2)3/h4-7H,1-3H3",STUSTWKEFDQFFZ-UHFFFAOYSA-N,CN(C)C=Nc1ccc(Cl)cc1C,-2.8624
2212,B-2213,2-octanol,"InChI=1S/C8H18O/c1-3-4-5-6-7-8(2)9/h8-9H,3-7H2,1-2H3",SJWFXCIHNDVPSH-UHFFFAOYSA-N,CCCCCCC(C)O,-2.0075
2213,B-2214,"propanoic acid, 2,3-dimercapto-","InChI=1S/C3H6O2S2/c4-3(5)2(7)1-6/h2,6-7H,1H2,(H,4,5)",AIVVKKOTAISCNQ-UHFFFAOYSA-N,OC(=O)C(S)CS,-0.2374
2214,B-2215,nifuroxime,"InChI=1S/C5H4N2O4/c8-6-3-4-1-2-5(11-4)7(9)10/h1-3,8H/b6-3+",PTBKFATYSVLSSD-ZZXKWVIFSA-N,O/N=C/c1oc(cc1)[N+]([O-])=O,-2.1934
2215,B-2216,"2h-azepin-2-one, 1-benzoylhexahydro-","InChI=1S/C13H15NO2/c15-12-9-5-2-6-10-14(12)13(16)11-7-3-1-4-8-11/h1,3-4,7-8H,2,5-6,9-10H2",FEFQUIPMKBPKAR-UHFFFAOYSA-N,O=C1CCCCCN1C(=O)c2ccccc2,-2.1667
2216,B-2217,c.i. disperse orange 13,"InChI=1S/C22H16N4O/c27-18-12-10-17(11-13-18)24-26-22-15-14-21(19-8-4-5-9-20(19)22)25-23-16-6-2-1-3-7-16/h1-15,26H",OYLYPSTUVSONQA-UHFFFAOYSA-N,O=C1C=CC(C=C1)=NNc2ccc(N=Nc3ccccc3)c4ccccc24,-6.0092
2217,B-2218,"2-bornanecarboxylic acid, 2-amino-","InChI=1S/C11H19NO2/c1-9(2)7-4-5-10(9,3)11(12,6-7)8(13)14/h7H,4-6,12H2,1-3H3,(H,13,14)",JZJKRUCQCUXZTD-UHFFFAOYSA-N,CC1(C)C2CCC1(C)C(N)(C2)C(O)=O,-1.5961
2218,B-2219,"diethylamine, hydrobromide","InChI=1S/C4H11N.BrH/c1-3-5-4-2;/h5H,3-4H2,1-2H3;1H",AATGHKSFEUVOPF-UHFFFAOYSA-N,[Br-].CC[NH2+]CC,0.8123
2219,B-2220,"benzenesulfonamide, 3-amino-4-methyl-","InChI=1S/C7H10N2O2S/c1-5-2-3-6(4-7(5)8)12(9,10)11/h2-4H,8H2,1H3,(H2,9,10,11)",HCZDHXMDYWZPPN-UHFFFAOYSA-N,Cc1ccc(cc1N)[S](N)(=O)=O,-1.9169
2220,B-2221,"lactamide, n-octyl-","InChI=1S/C11H23NO2/c1-3-4-5-6-7-8-9-12-11(14)10(2)13/h10,13H,3-9H2,1-2H3,(H,12,14)",QGZRRRDVKLFCCS-UHFFFAOYSA-N,CCCCCCCCNC(=O)C(C)O,-2.2827
2221,B-2222,"lactamide, n-decyl-","InChI=1S/C13H27NO2/c1-3-4-5-6-7-8-9-10-11-14-13(16)12(2)15/h12,15H,3-11H2,1-2H3,(H,14,16)",NUXGELRNTBNWTF-UHFFFAOYSA-N,CCCCCCCCCCNC(=O)C(C)O,-3.3605
2222,B-2223,"propanoic acid, 2-hydroxy-, 1-methyl-2-oxo-2-(2-","InChI=1S/C9H14O5/c1-4-5-13-9(12)7(3)14-8(11)6(2)10/h4,6-7,10H,1,5H2,2-3H3",CPKMYVLHYLGADM-UHFFFAOYSA-N,CC(O)C(=O)OC(C)C(=O)OCC=C,-0.6826
2223,B-2224,"d-glucitol, 1-deoxy-1-(methylamino)-","InChI=1S/C7H17NO5/c1-8-2-4(10)6(12)7(13)5(11)3-9/h4-13H,2-3H2,1H3",MBBZMMPHUWSWHV-UHFFFAOYSA-N,CNCC(O)C(O)C(O)C(O)CO,0.4084
2224,B-2225,"propanoic acid, 2-(acetyloxy)-, methyl ester","InChI=1S/C6H10O4/c1-4(6(8)9-3)10-5(2)7/h4H,1-3H3",QTFFGYLLUHQSAS-UHFFFAOYSA-N,COC(=O)C(C)OC(C)=O,-0.2617
2225,B-2226,"glycine, n,n-bis(2-cyanoethyl)-","InChI=1S/C8H11N3O2/c9-3-1-5-11(6-2-4-10)7-8(12)13/h1-2,5-7H2,(H,12,13)",KIGQVWWOESIMBG-UHFFFAOYSA-N,OC(=O)CN(CCC#N)CCC#N,0.4578
2226,B-2227,"5-quinoxalinamine, 6,7-dimethoxy-","InChI=1S/C10H11N3O2/c1-14-7-5-6-9(13-4-3-12-6)8(11)10(7)15-2/h3-5H,11H2,1-2H3",ASEJLJNYULOOOK-UHFFFAOYSA-N,COc1cc2nccnc2c(N)c1OC,-1.7102
2227,B-2228,"urea, 1-methyl-1-p-tolyl-","InChI=1S/C9H12N2O/c1-7-3-5-8(6-4-7)11(2)9(10)12/h3-6H,1-2H3,(H2,10,12)",JPJWFNHMOPQSBQ-UHFFFAOYSA-N,CN(C(N)=O)c1ccc(C)cc1,-0.423
2228,B-2229,"2,4-dimethyl-1-pentanol","InChI=1S/C7H16O/c1-6(2)4-7(3)5-8/h6-8H,4-5H2,1-3H3",OVOVDHYEOQJKMD-UHFFFAOYSA-N,CC(C)CC(C)CO,-1.6007
2229,B-2230,"benzamide, 4-(aminosulfonyl)-","InChI=1S/C7H8N2O3S/c8-7(10)5-1-3-6(4-2-5)13(9,11)12/h1-4H,(H2,8,10)(H2,9,11,12)",MWFFIRCXGDGFQB-UHFFFAOYSA-N,NC(=O)c1ccc(cc1)[S](N)(=O)=O,-2.3015
2230,B-2231,"2,4(1h,3h)-pyrimidinedione, 5-methyl-1-(phenylme","InChI=1S/C12H12N2O2/c1-9-7-14(12(16)13-11(9)15)8-10-5-3-2-4-6-10/h2-7H,8H2,1H3,(H,13,15,16)",YNHQGNHVHHZPTA-UHFFFAOYSA-N,CC1=CN(Cc2ccccc2)C(=O)NC1=O,-2.2558
2231,B-2232,"1h-imidazole-4-sulfonic acid, 5-methyl-","InChI=1S/C4H6N2O3S/c1-3-4(6-2-5-3)10(7,8)9/h2H,1H3,(H,5,6)(H,7,8,9)",KGDKWOYOXAFWLV-UHFFFAOYSA-N,Cc1[nH]cnc1[S](O)(=O)=O,0.188
2232,B-2233,"2,3-quinoxalinedione, 1,4-dihydro-6-methyl-","InChI=1S/C9H8N2O2/c1-5-2-3-6-7(4-5)11-9(13)8(12)10-6/h2-4H,1H3,(H,10,12)(H,11,13)",HOHZZPCLZWZMOM-UHFFFAOYSA-N,Cc1ccc2NC(=O)C(=O)Nc2c1,-3.0418
2233,B-2234,"benzoic acid, 4-bromo-3-nitro-","InChI=1S/C7H4BrNO4/c8-5-2-1-4(7(10)11)3-6(5)9(12)13/h1-3H,(H,10,11)",RVCTZJVBWNFYRU-UHFFFAOYSA-N,OC(=O)c1ccc(Br)c(c1)[N+]([O-])=O,-2.9677
2234,B-2235,"9-acridinol, 9,10-dihydro-10-methyl-9-phenyl-","InChI=1S/C20H17NO/c1-21-18-13-7-5-11-16(18)20(22,15-9-3-2-4-10-15)17-12-6-8-14-19(17)21/h2-14,22H,1H3",MILNADFLMJQLHM-UHFFFAOYSA-N,CN1c2ccccc2C(O)(c3ccccc3)c4ccccc14,-3.9031
2235,B-2236,"2-cyclohexene-1,2-dicarboxylic acid, 1-methyl-","InChI=1S/C9H12O4/c1-9(8(12)13)5-3-2-4-6(9)7(10)11/h4H,2-3,5H2,1H3,(H,10,11)(H,12,13)",PCVSTKYNEXPKMI-UHFFFAOYSA-N,CC1(CCCC=C1C(O)=O)C(O)=O,-1.9642
2236,B-2237,"dl-aspartic acid, n,n-bis(2-cyanoethyl)-","InChI=1S/C10H13N3O4/c11-3-1-5-13(6-2-4-12)8(10(16)17)7-9(14)15/h8H,1-2,5-7H2,(H,14,15)(H,16,17)",GNVTYGNEZLLRIK-UHFFFAOYSA-N,OC(=O)CC(N(CCC#N)CCC#N)C(O)=O,-1.5337
2237,B-2238,"1,2-benzenedicarboxamide, n,n,n',n'-tetramethyl-","InChI=1S/C12H16N2O2/c1-13(2)11(15)9-7-5-6-8-10(9)12(16)14(3)4/h5-8H,1-4H3",ZUMRZCLVLLRVIF-UHFFFAOYSA-N,CN(C)C(=O)c1ccccc1C(=O)N(C)C,0.5083
2238,B-2239,"acetic acid, [2-methoxy-4-(2-propenyl)phenoxy]-","InChI=1S/C12H14O4/c1-3-4-9-5-6-10(11(7-9)15-2)16-8-12(13)14/h3,5-7H,1,4,8H2,2H3,(H,13,14)/p-1",FQBPCNCFOCPCJP-UHFFFAOYSA-M,COc1cc(CC=C)ccc1OCC([O-])=O,-2.2786
2239,B-2240,trichothecin,"InChI=1S/C19H24O5/c1-5-6-16(21)24-14-8-15-19(10-22-19)18(14,4)17(3)9-12(20)11(2)7-13(17)23-15/h5-7,13-15H,8-10H2,1-4H3/b6-5-/t13-,14-,15-,17+,18-,19-/m1/s1",LJWZOKOFCBPNAG-SMRSBHFRSA-N,C\C=C/C(=O)O[C@@H]1C[C@H]2O[C@@H]3C=C(C)C(=O)C[C@]3(C)[C@]1(C)[C@@]24CO4,-2.9196
2240,B-2241,amyl lactate,"InChI=1S/C8H16O3/c1-3-4-5-6-11-8(10)7(2)9/h7,9H,3-6H2,1-2H3",GXOHBWLPQHTYPF-UHFFFAOYSA-N,CCCCCOC(=O)C(C)O,-1.2047
2241,B-2242,cloxyfonac,"InChI=1S/C9H9ClO4/c10-7-1-2-8(6(3-7)4-11)14-5-9(12)13/h1-3,11H,4-5H2,(H,12,13)",ZJRUTGDCLVIVRD-UHFFFAOYSA-N,OCc1cc(Cl)ccc1OCC(O)=O,-2.0347
2242,B-2243,allyxycarb [bsi:iso],"InChI=1S/C16H22N2O2/c1-6-8-18(9-7-2)15-12(3)10-14(11-13(15)4)20-16(19)17-5/h6-7,10-11H,1-2,8-9H2,3-5H3,(H,17,19)",FBEHFRAORPEGFH-UHFFFAOYSA-N,CNC(=O)Oc1cc(C)c(N(CC=C)CC=C)c(C)c1,-3.5932
2243,B-2244,3-chlorodiphenyl ether,InChI=1S/C12H9ClO/c13-10-5-4-8-12(9-10)14-11-6-2-1-3-7-11/h1-9H,BMURONZFJJPAOK-UHFFFAOYSA-N,Clc1cccc(Oc2ccccc2)c1,-4.2107
2244,B-2245,(r)-(-)-carvone,"InChI=1S/C10H14O/c1-7(2)9-5-4-8(3)10(11)6-9/h4,9H,1,5-6H2,2-3H3/t9-/m1/s1",ULDHMXUKGWMISQ-SECBINFHSA-N,CC(=C)[C@@H]1CC=C(C)C(=O)C1,-2.0608
2245,B-2246,"salicylanilide, 4'-chloro-5-nitro-","InChI=1S/C13H9ClN2O4/c14-8-1-3-9(4-2-8)15-13(18)11-7-10(16(19)20)5-6-12(11)17/h1-7,17H,(H,15,18)",CDYKTFABNOULII-UHFFFAOYSA-N,Oc1ccc(cc1C(=O)Nc2ccc(Cl)cc2)[N+]([O-])=O,-5.122000000000001
2246,B-2247,"salicylanilide, 4'-chloro-3-nitro-","InChI=1S/C13H9ClN2O4/c14-8-4-6-9(7-5-8)15-13(18)10-2-1-3-11(12(10)17)16(19)20/h1-7,17H,(H,15,18)",UOHLBUBEMXVTMQ-UHFFFAOYSA-N,Oc1c(cccc1[N+]([O-])=O)C(=O)Nc2ccc(Cl)cc2,-4.5452
2247,B-2248,"alanine, n-(2-bromo-3-methylbutyryl)-, dl-","InChI=1S/C8H14BrNO3/c1-4(2)6(9)7(11)10-5(3)8(12)13/h4-6H,1-3H3,(H,10,11)(H,12,13)",AXXGBXUAFMEEMQ-UHFFFAOYSA-N,CC(C)C(Br)C(=O)NC(C)C(O)=O,-0.4825
2248,B-2249,pentoxifylline,"InChI=1S/C13H18N4O3/c1-9(18)6-4-5-7-17-12(19)10-11(14-8-15(10)2)16(3)13(17)20/h8H,4-7H2,1-3H3",BYPFEZZEUUWMEJ-UHFFFAOYSA-N,Cn1cnc2N(C)C(=O)N(CCCCC(C)=O)C(=O)c12,-0.5579999999999999
2249,B-2250,"benzoic acid, 4-hydroxy-, pentyl ester","InChI=1S/C12H16O3/c1-2-3-4-9-15-12(14)10-5-7-11(13)8-6-10/h5-8,13H,2-4,9H2,1H3",ZNSSPLQZSUWFJT-UHFFFAOYSA-N,CCCCCOC(=O)c1ccc(O)cc1,-3.8135
2250,B-2251,norgestrel,"InChI=1S/C21H28O2/c1-3-20-11-9-17-16-8-6-15(22)13-14(16)5-7-18(17)19(20)10-12-21(20,23)4-2/h2,13,16-19,23H,3,5-12H2,1H3/t16-,17+,18+,19-,20-,21-/m0/s1",WWYNJERNGUHSAO-XUDSTZEESA-N,CC[C@]12CC[C@H]3[C@@H](CCC4=CC(=O)CC[C@H]34)[C@@H]1CC[C@@]2(O)C#C,-5.2567
2251,B-2252,"1,3-benzodioxole-5-acetaldehyde","InChI=1S/C9H8O3/c10-4-3-7-1-2-8-9(5-7)12-6-11-8/h1-2,4-5H,3,6H2",RRMZTAWQQFJQHL-UHFFFAOYSA-N,O=CCc1ccc2OCOc2c1,-1.96
2252,B-2253,"4-oxo-1,2,3,4-tetrahydro-<2>naphthoic acid","InChI=1S/C11H10O3/c12-10-6-8(11(13)14)5-7-3-1-2-4-9(7)10/h1-4,8H,5-6H2,(H,13,14)",UYNMKOITXUEVCZ-UHFFFAOYSA-N,OC(=O)C1CC(=O)c2ccccc2C1,-2.1031
2253,B-2254,eglinazine ethyl,"InChI=1S/C9H14ClN5O2/c1-3-11-8-13-7(10)14-9(15-8)12-5-6(16)17-4-2/h3-5H2,1-2H3,(H2,11,12,13,14,15)",YESXTECNXIKUMM-UHFFFAOYSA-N,CCNc1nc(Cl)nc(NCC(=O)OCC)n1,-2.9374
2254,B-2255,"l-serine, n-l-seryl-","InChI=1S/C6H12N2O5/c7-3(1-9)5(11)8-4(2-10)6(12)13/h3-4,9-10H,1-2,7H2,(H,8,11)(H,12,13)",XZKQVQKUZMAADP-UHFFFAOYSA-N,NC(CO)C(=O)NC(CO)C(O)=O,-0.5847
2255,B-2256,"1,2-cyclopentanedione, dioxime","InChI=1S/C5H8N2O2/c8-6-4-2-1-3-5(4)7-9/h6,8H,1-3H2",QHWNFVBTROFACM-UHFFFAOYSA-N,ONC1=C(CCC1)N=O,-1.9937
2256,B-2257,"2-pyrrolidinone, 5-methyl-1-phenyl-","InChI=1S/C11H13NO/c1-9-7-8-11(13)12(9)10-5-3-2-4-6-10/h2-6,9H,7-8H2,1H3",VKSABXHARNALNR-UHFFFAOYSA-N,CC1CCC(=O)N1c2ccccc2,-0.8457