,ID,Name,InChI,InChIKey,SMILES,Solubility
3371,B-3372,"2,6-piperidinedicarboxamide","InChI=1S/C7H13N3O2/c8-6(11)4-2-1-3-5(10-4)7(9)12/h4-5,10H,1-3H2,(H2,8,11)(H2,9,12)",LOVQGUOGVLKMQT-UHFFFAOYSA-N,NC(=O)C1CCCC(N1)C(N)=O,0.2893
3372,B-3373,"1,2-cyclohexanedione, 4-tert-pentyl-, dioxime","InChI=1S/C11H20N2O2/c1-4-11(2,3)8-5-6-9(12-14)10(7-8)13-15/h8,14-15H,4-7H2,1-3H3",LKKSDAFFSSAZMV-UHFFFAOYSA-N,CCC(C)(C)C1CCC(=NO)C(C1)=NO,-3.9652
3373,B-3374,"8-quinazolinol, 4-propyl-","InChI=1S/C11H12N2O/c1-2-4-9-8-5-3-6-10(14)11(8)13-7-12-9/h3,5-7,14H,2,4H2,1H3",KUCALNGKSZWXGU-UHFFFAOYSA-N,CCCc1ncnc2c(O)cccc12,-2.9206
3374,B-3375,"1-naphthalenepropanoic acid, .beta.-amino-, (ñ)","InChI=1S/C13H13NO2/c14-12(8-13(15)16)11-7-3-5-9-4-1-2-6-10(9)11/h1-7,12H,8,14H2,(H,15,16)/t12-/m1/s1",BIOQBKBTOAMMDG-GFCCVEGCSA-N,[NH3+][C@H](CC([O-])=O)c1cccc2ccccc12,-1.5902
3375,B-3376,"3-pyridinecarboxylic acid, heptyl ester","InChI=1S/C13H19NO2/c1-2-3-4-5-6-10-16-13(15)12-8-7-9-14-11-12/h7-9,11H,2-6,10H2,1H3",MBYWGKLWYUEAKO-UHFFFAOYSA-N,CCCCCCCOC(=O)c1cccnc1,-2.7429
3376,B-3377,quizalofop-p-ethyl,"InChI=1S/C19H17ClN2O4/c1-3-24-19(23)12(2)25-14-5-7-15(8-6-14)26-18-11-21-17-10-13(20)4-9-16(17)22-18/h4-12H,3H2,1-2H3/t12-/m1/s1",OSUHJPCHFDQAIT-GFCCVEGCSA-N,CCOC(=O)[C@@H](C)Oc1ccc(Oc2cnc3cc(Cl)ccc3n2)cc1,-5.9694
3377,B-3378,halosulfuron-methyl,"InChI=1S/C13H15ClN6O7S/c1-20-10(8(9(14)18-20)11(21)27-4)28(23,24)19-13(22)17-12-15-6(25-2)5-7(16-12)26-3/h5H,1-4H3,(H2,15,16,17,19,22)",FMGZEUWROYGLAY-UHFFFAOYSA-N,COC(=O)c1c(Cl)nn(C)c1[S](=O)(=O)NC(=O)Nc2nc(OC)cc(OC)n2,-4.4642
3378,B-3379,"quinoline, 5-acetamido-8-ethoxy-","InChI=1S/C13H14N2O2/c1-3-17-12-7-6-11(15-9(2)16)10-5-4-8-14-13(10)12/h4-8H,3H2,1-2H3,(H,15,16)",UHIFHPBBOPIWEO-UHFFFAOYSA-N,CCOc1ccc(NC(C)=O)c2cccnc12,-1.5171
3379,B-3380,"phosphoric acid, dibutyl 4-ethoxybutyl ester","InChI=1S/C14H31O5P/c1-4-7-12-17-20(15,18-13-8-5-2)19-14-10-9-11-16-6-3/h4-14H2,1-3H3",XGWQSRFFKSAKGU-UHFFFAOYSA-N,CCCCO[P](=O)(OCCCC)OCCCCOCC,-2.6468
3380,B-3381,acrinathrin,"InChI=1S/C26H21F6NO5/c1-24(2)18(11-12-20(34)38-23(25(27,28)29)26(30,31)32)21(24)22(35)37-19(14-33)15-7-6-10-17(13-15)36-16-8-4-3-5-9-16/h3-13,18-19,21,23H,1-2H3/b12-11-/t18-,19+,21-/m0/s1",YLFSVIMMRPNPFK-WEQBUNFVSA-N,CC1(C)[C@@H](\C=C/C(=O)OC(C(F)(F)F)C(F)(F)F)[C@H]1C(=O)O[C@H](C#N)c2cccc(Oc3ccccc3)c2,-7.4325
3381,B-3382,tribenuron-methyl,"InChI=1S/C15H17N5O6S/c1-9-16-13(18-14(17-9)26-4)20(2)15(22)19-27(23,24)11-8-6-5-7-10(11)12(21)25-3/h5-8H,1-4H3,(H,19,22)",VLCQZHSMCYCDJL-UHFFFAOYSA-N,COC(=O)c1ccccc1[S](=O)(=O)NC(=O)N(C)c2nc(C)nc(OC)n2,-3.8981
3382,B-3383,"butanoic acid, 2,2,4-trichloro-","InChI=1S/C4H5Cl3O2/c5-2-1-4(6,7)3(8)9/h1-2H2,(H,8,9)",UGTZSSVWKVRIAN-UHFFFAOYSA-N,OC(=O)C(Cl)(Cl)CCCl,-0.5831
3383,B-3384,flufenoxuron,"InChI=1S/C21H11ClF6N2O3/c22-12-8-10(21(26,27)28)4-7-17(12)33-11-5-6-16(15(25)9-11)29-20(32)30-19(31)18-13(23)2-1-3-14(18)24/h1-9H,(H2,29,30,31,32)",RYLHNOVXKPXDIP-UHFFFAOYSA-N,Fc1cc(Oc2ccc(cc2Cl)C(F)(F)F)ccc1NC(=O)NC(=O)c3c(F)cccc3F,-8.5073
3384,B-3385,"phthalic acid, 4-nitro-, 2-methyl ester","InChI=1S/C9H7NO6/c1-16-9(13)7-4-5(10(14)15)2-3-6(7)8(11)12/h2-4H,1H3,(H,11,12)/p-1",DBRYTMUUOGDANT-UHFFFAOYSA-M,COC(=O)c1cc(ccc1C([O-])=O)[N+]([O-])=O,-1.7209999999999999
3385,B-3386,"undecanoic acid, 11-[(6-aminohexyl)amino]-","InChI=1S/C17H36N2O2/c18-14-10-6-8-12-16-19-15-11-7-4-2-1-3-5-9-13-17(20)21/h19H,1-16,18H2,(H,20,21)",UHGYYQUSAMHAAH-UHFFFAOYSA-N,NCCCCCCNCCCCCCCCCCC(O)=O,-2.3017
3386,B-3387,pefurazoate,"InChI=1S/C18H23N3O4/c1-3-5-6-11-25-17(22)16(4-2)21(13-15-8-7-12-24-15)18(23)20-10-9-19-14-20/h3,7-10,12,14,16H,1,4-6,11,13H2,2H3",WBTYBAGIHOISOQ-UHFFFAOYSA-N,CCC(N(Cc1occc1)C(=O)n2ccnc2)C(=O)OCCCC=C,-2.8919
3387,B-3388,"7(8h)-pteridinone, 8-methyl-","InChI=1S/C7H6N4O/c1-11-6(12)3-9-5-2-8-4-10-7(5)11/h2-4H,1H3",AUYUOHQABGMBSA-UHFFFAOYSA-N,CN1C(=O)C=Nc2cncnc12,-0.9089
3388,B-3389,"pteridine, 2-methoxy-","InChI=1S/C7H6N4O/c1-12-7-10-4-5-6(11-7)9-3-2-8-5/h2-4H,1H3",NIKKSNUDXYPTRO-UHFFFAOYSA-N,COc1ncc2nccnc2n1,-1.113
3389,B-3390,"2(1h)-pteridinone, 1-methyl-","InChI=1S/C7H6N4O/c1-11-6-5(4-10-7(11)12)8-2-3-9-6/h2-4H,1H3",LTDGAKSGAQHSFE-UHFFFAOYSA-N,CN1C(=O)N=Cc2nccnc12,-1.3713
3390,B-3391,"hexanamide, n-(aminocarbonyl)-2-ethylidene-","InChI=1S/C9H16N2O2/c1-3-5-6-7(4-2)8(12)11-9(10)13/h4H,3,5-6H2,1-2H3,(H3,10,11,12,13)/b7-4-",AUJBYHKZNPPODV-DAXSKMNVSA-N,CCCC\C(=C\C)C(=O)NC(N)=O,-2.7883
3391,B-3392,"butane, 2-chloro-3-methoxy-","InChI=1S/C5H11ClO/c1-4(6)5(2)7-3/h4-5H,1-3H3",RBFOFWDEFDASDA-UHFFFAOYSA-N,COC(C)C(C)Cl,-1.9986
3392,B-3393,"phthalide, 4-bromo-6,7-dimethoxy-","InChI=1S/C10H9BrO4/c1-13-7-3-6(11)5-4-15-10(12)8(5)9(7)14-2/h3H,4H2,1-2H3",OVTBMKVBBHTERH-UHFFFAOYSA-N,COc1cc(Br)c2COC(=O)c2c1OC,-3.9311
3393,B-3394,"4-pteridinol, 6,7-diethyl-","InChI=1S/C10H12N4O/c1-3-6-7(4-2)14-9-8(13-6)10(15)12-5-11-9/h5H,3-4H2,1-2H3,(H,11,12,14,15)",WIUUIGUJULBTKD-UHFFFAOYSA-N,CCc1nc2ncnc(O)c2nc1CC,-1.9122
3394,B-3395,fenchlorazole-ethyl,"InChI=1S/C12H8Cl5N3O2/c1-2-22-10(21)9-18-11(12(15,16)17)20(19-9)8-4-3-6(13)5-7(8)14/h3-5H,2H2,1H3",GMBRUAIJEFRHFQ-UHFFFAOYSA-N,CCOC(=O)c1nn(c2ccc(Cl)cc2Cl)c(n1)C(Cl)(Cl)Cl,-5.6516
3395,B-3396,flumioxazin,"InChI=1S/C19H15FN2O4/c1-2-7-21-15-9-14(13(20)8-16(15)26-10-17(21)23)22-18(24)11-5-3-4-6-12(11)19(22)25/h1,8-9H,3-7,10H2",FOUWCSDKDDHKQP-UHFFFAOYSA-N,Fc1cc2OCC(=O)N(CC#C)c2cc1N3C(=O)C4=C(CCCC4)C3=O,-5.2966
3396,B-3397,"hexanedioic acid, 2,2-diphenyl-","InChI=1S/C18H18O4/c19-16(20)12-7-13-18(17(21)22,14-8-3-1-4-9-14)15-10-5-2-6-11-15/h1-6,8-11H,7,12-13H2,(H,19,20)(H,21,22)",NUDXUJGIZOXHOV-UHFFFAOYSA-N,OC(=O)CCCC(C(O)=O)(c1ccccc1)c2ccccc2,-3.1737
3397,B-3398,Imazapic,"InChI=1S/C14H17N3O3/c1-7(2)14(4)13(20)16-11(17-14)10-9(12(18)19)5-8(3)6-15-10/h5-7H,1-4H3,(H,18,19)(H,16,17,20)",PVSGXWMWNRGTKE-UHFFFAOYSA-N,CC(C)C1(C)N=C(NC1=O)c2ncc(C)cc2C(O)=O,-2.0911
3398,B-3399,"2-benzofurancarboxylic acid, 3-methoxy-","InChI=1S/C10H8O4/c1-13-8-6-4-2-3-5-7(6)14-9(8)10(11)12/h2-5H,1H3,(H,11,12)",MZOCFIBSONGMJF-UHFFFAOYSA-N,COc1c(oc2ccccc12)C(O)=O,-2.8857
3399,B-3400,akh-7088,"InChI=1S/C19H16ClF3N2O7/c1-29-9-15(24-31-10-18(26)30-2)13-8-12(4-5-16(13)25(27)28)32-17-6-3-11(7-14(17)20)19(21,22)23/h3-8H,9-10H2,1-2H3/b24-15-",GAIFAPDHLCPUMF-IWIPYMOSSA-N,COC/C(=N/OCC(=O)OC)c1cc(Oc2ccc(cc2Cl)C(F)(F)F)ccc1[N+]([O-])=O,-5.6783
3400,B-3401,silafluofen,"InChI=1S/C25H29FO2Si/c1-4-27-21-13-15-23(16-14-21)29(2,3)18-8-9-20-12-17-24(26)25(19-20)28-22-10-6-5-7-11-22/h5-7,10-17,19H,4,8-9,18H2,1-3H3",HPYNBECUCCGGPA-UHFFFAOYSA-N,CCOc1ccc(cc1)[Si](C)(C)CCCc2ccc(F)c(Oc3ccccc3)c2,-8.6113
3401,B-3402,clodinafop-propargyl,"InChI=1S/C17H13ClFNO4/c1-3-8-22-17(21)11(2)23-13-4-6-14(7-5-13)24-16-15(19)9-12(18)10-20-16/h1,4-7,9-11H,8H2,2H3/t11-/m1/s1",JBDHZKLJNAIJNC-LLVKDONJSA-N,C[C@@H](Oc1ccc(Oc2ncc(Cl)cc2F)cc1)C(=O)OCC#C,-4.9417
3402,B-3403,pyrimidifen,"InChI=1S/C20H28ClN3O2/c1-5-17-19(21)20(24-13-23-17)22-10-12-26-18-8-7-16(9-11-25-6-2)14(3)15(18)4/h7-8,13H,5-6,9-12H2,1-4H3,(H,22,23,24)",ITKAIUGKVKDENI-UHFFFAOYSA-N,CCOCCc1ccc(OCCNc2ncnc(CC)c2Cl)c(C)c1C,-5.2409
3403,B-3404,"valeric acid, 4-(benzamido)-","InChI=1S/C12H15NO3/c1-9(7-8-11(14)15)13-12(16)10-5-3-2-4-6-10/h2-6,9H,7-8H2,1H3,(H,13,16)(H,14,15)",ZGBHFYITZDYZPR-UHFFFAOYSA-N,CC(CCC(O)=O)NC(=O)c1ccccc1,-1.6917
3404,B-3405,2-bromo-4-methyl-5-nitro-1h-imidazole,"InChI=1S/C4H4BrN3O2/c1-2-3(8(9)10)7-4(5)6-2/h1H3,(H,6,7)",GOKBPGXXQSCLLS-UHFFFAOYSA-N,Cc1nc(Br)[nH]c1[N+]([O-])=O,-1.7914
3405,B-3406,"acetamide, 2-(benzoyloxy)-n-methyl-","InChI=1S/C10H11NO3/c1-11-9(12)7-14-10(13)8-5-3-2-4-6-8/h2-6H,7H2,1H3,(H,11,12)",ZWAHHEQQTJUTPW-UHFFFAOYSA-N,CNC(=O)COC(=O)c1ccccc1,-1.7178
3406,B-3407,"acetamide, 2-(benzoyloxy)-n-propyl-","InChI=1S/C12H15NO3/c1-2-8-13-11(14)9-16-12(15)10-6-4-3-5-7-10/h3-7H,2,8-9H2,1H3,(H,13,14)",OLCZSUFMDPGDIL-UHFFFAOYSA-N,CCCNC(=O)COC(=O)c1ccccc1,-2.5387
3407,B-3408,"acetamide, 2-(benzoyloxy)-n-(1,1-dimethylethyl)-","InChI=1S/C13H17NO3/c1-13(2,3)14-11(15)9-17-12(16)10-7-5-4-6-8-10/h4-8H,9H2,1-3H3,(H,14,15)",NZNPHIKNHGRVLZ-UHFFFAOYSA-N,CC(C)(C)NC(=O)COC(=O)c1ccccc1,-2.8665
3408,B-3409,"acetamide, 2-[[(benzoyloxy)acetyl]amino]-","InChI=1S/C11H12N2O4/c12-9(14)6-13-10(15)7-17-11(16)8-4-2-1-3-5-8/h1-5H,6-7H2,(H2,12,14)(H,13,15)",XYGUXAGVJDBSBP-UHFFFAOYSA-N,NC(=O)CNC(=O)COC(=O)c1ccccc1,-1.4983
3409,B-3410,"acetamide, 2-(benzoyloxy)-n,n-dimethyl-","InChI=1S/C11H13NO3/c1-12(2)10(13)8-15-11(14)9-6-4-3-5-7-9/h3-7H,8H2,1-2H3",WKIMLEWQZUKSJM-UHFFFAOYSA-N,CN(C)C(=O)COC(=O)c1ccccc1,-1.3719999999999999
3410,B-3411,"acetamide, 2-(benzoyloxy)-n,n-dipropyl-","InChI=1S/C15H21NO3/c1-3-10-16(11-4-2)14(17)12-19-15(18)13-8-6-5-7-9-13/h5-9H,3-4,10-12H2,1-2H3",COTRONQEHWUCRV-UHFFFAOYSA-N,CCCN(CCC)C(=O)COC(=O)c1ccccc1,-2.3791
3411,B-3412,"acetamide, 2-(benzoyloxy)-n,n-dibutyl-","InChI=1S/C17H25NO3/c1-3-5-12-18(13-6-4-2)16(19)14-21-17(20)15-10-8-7-9-11-15/h7-11H,3-6,12-14H2,1-2H3",ORAHATGHUWMRCM-UHFFFAOYSA-N,CCCCN(CCCC)C(=O)COC(=O)c1ccccc1,-3.5614
3412,B-3413,"acetamide, 2-(benzoyloxy)-n,n-bis(2-propenyl)-","InChI=1S/C15H17NO3/c1-3-10-16(11-4-2)14(17)12-19-15(18)13-8-6-5-7-9-13/h3-9H,1-2,10-12H2",KIBXYDHXHWRNTP-UHFFFAOYSA-N,C=CCN(CC=C)C(=O)COC(=O)c1ccccc1,-2.5626
3413,B-3414,"glycine, n-[(benzoyloxy)acetyl]-n-methyl-","InChI=1S/C12H13NO5/c1-13(7-11(15)16)10(14)8-18-12(17)9-5-3-2-4-6-9/h2-6H,7-8H2,1H3,(H,15,16)",SHYSSTOSYAOGMS-UHFFFAOYSA-N,CN(CC(O)=O)C(=O)COC(=O)c1ccccc1,-2.254
3414,B-3415,"piperidine, 1-[(benzoyloxy)acetyl]-","InChI=1S/C14H17NO3/c16-13(15-9-5-2-6-10-15)11-18-14(17)12-7-3-1-4-8-12/h1,3-4,7-8H,2,5-6,9-11H2",BCNWJNNKUUMDHS-UHFFFAOYSA-N,O=C(COC(=O)c1ccccc1)N2CCCCC2,-2.5011
3415,B-3416,"morpholine, 4-[(benzoyloxy)acetyl]-","InChI=1S/C13H15NO4/c15-12(14-6-8-17-9-7-14)10-18-13(16)11-4-2-1-3-5-11/h1-5H,6-10H2",AVZVLGDSSQKRGL-UHFFFAOYSA-N,O=C(COC(=O)c1ccccc1)N2CCOCC2,-1.7734
3416,B-3417,"butanoic acid, 2-(formylamino)-","InChI=1S/C5H9NO3/c1-2-4(5(8)9)6-3-7/h3-4H,2H2,1H3,(H,6,7)(H,8,9)",QAISXTKWTBOYAA-UHFFFAOYSA-N,CCC(NC=O)C(O)=O,-0.5918
3417,B-3418,tebuconazole,"InChI=1S/C16H22ClN3O/c1-15(2,3)16(21,10-20-12-18-11-19-20)9-8-13-4-6-14(17)7-5-13/h4-7,11-12,21H,8-10H2,1-3H3",PXMNMQRDXWABCY-UHFFFAOYSA-N,CC(C)(C)C(O)(CCc1ccc(Cl)cc1)Cn2cncn2,-3.932
3418,B-3419,"benzenesulfonamide, 4-[(2-hydroxyethyl)thio]-","InChI=1S/C8H11NO3S2/c9-14(11,12)8-3-1-7(2-4-8)13-6-5-10/h1-4,10H,5-6H2,(H2,9,11,12)",LTXDVFFEVZJDGT-UHFFFAOYSA-N,N[S](=O)(=O)c1ccc(SCCO)cc1,-1.8239
3419,B-3420,"benzenesulfonamide, 4-[(3-hydroxypropyl)thio]-","InChI=1S/C9H13NO3S2/c10-15(12,13)9-4-2-8(3-5-9)14-7-1-6-11/h2-5,11H,1,6-7H2,(H2,10,12,13)",BHBPVVOUUXIZBX-UHFFFAOYSA-N,N[S](=O)(=O)c1ccc(SCCCO)cc1,-2.2472
3420,B-3421,"benzenesulfonamide, 4-[(5-hydroxypentyl)thio]-","InChI=1S/C11H17NO3S2/c12-17(14,15)11-6-4-10(5-7-11)16-9-3-1-2-8-13/h4-7,13H,1-3,8-9H2,(H2,12,14,15)",FDORWDSKZBVQSQ-UHFFFAOYSA-N,N[S](=O)(=O)c1ccc(SCCCCCO)cc1,-2.6618
3421,B-3422,"hexanedioic acid, 2,5-dihydroxy-2,5-dimethyl-","InChI=1S/C8H14O6/c1-7(13,5(9)10)3-4-8(2,14)6(11)12/h13-14H,3-4H2,1-2H3,(H,9,10)(H,11,12)",KDLPLSPPCRJHGC-UHFFFAOYSA-N,CC(O)(CCC(C)(O)C(O)=O)C(O)=O,-0.8372
3422,B-3423,"4-pyrimidinamine, 5-ethyl-2,6-dipropyl-","InChI=1S/C12H21N3/c1-4-7-10-9(6-3)12(13)15-11(14-10)8-5-2/h4-8H2,1-3H3,(H2,13,14,15)",LMTGLSPLZHJYNH-UHFFFAOYSA-N,CCCc1nc(N)c(CC)c(CCC)n1,-2.5132
3423,B-3424,diflufenzopyr,"InChI=1S/C15H12F2N4O3/c1-8(13-12(14(22)23)3-2-4-18-13)20-21-15(24)19-11-6-9(16)5-10(17)7-11/h2-7H,1H3,(H,22,23)(H2,19,21,24)/b20-8+",IRJQWZWMQCVOLA-DNTJNYDQSA-N,C\C(=N/NC(=O)Nc1cc(F)cc(F)c1)c2ncccc2C(O)=O,-3.7248
3424,B-3425,"benzoic acid, o-phthalidyl-","InChI=1S/C15H10O4/c16-14(17)11-7-3-1-5-9(11)13-10-6-2-4-8-12(10)15(18)19-13/h1-8,13H,(H,16,17)",UBTNYTYIXDTYQT-UHFFFAOYSA-N,OC(=O)c1ccccc1C2OC(=O)c3ccccc23,-3.1042
3425,B-3426,azacyclononadecan-2-one,"InChI=1S/C18H35NO/c20-18-16-14-12-10-8-6-4-2-1-3-5-7-9-11-13-15-17-19-18/h1-17H2,(H,19,20)",ABTUPTPDCSVHOI-UHFFFAOYSA-N,O=C1CCCCCCCCCCCCCCCCCN1,-2.8474
3426,B-3427,mepanipyrim,"InChI=1S/C14H13N3/c1-3-7-13-10-11(2)15-14(17-13)16-12-8-5-4-6-9-12/h4-6,8-10H,1-2H3,(H,15,16,17)",CIFWZNRJIBNXRE-UHFFFAOYSA-N,CC#Cc1cc(C)nc(Nc2ccccc2)n1,-4.8575
3427,B-3428,propaquizafop,"InChI=1S/C22H22ClN3O5/c1-14(2)26-29-11-10-28-22(27)15(3)30-17-5-7-18(8-6-17)31-21-13-24-20-12-16(23)4-9-19(20)25-21/h4-9,12-13,15H,10-11H2,1-3H3",FROBCXTULYFHEJ-UHFFFAOYSA-N,CC(Oc1ccc(Oc2cnc3cc(Cl)ccc3n2)cc1)C(=O)OCCON=C(C)C,-5.8479
3428,B-3429,fenpyroximate,"InChI=1S/C24H27N3O4/c1-17-21(22(27(5)26-17)30-20-9-7-6-8-10-20)15-25-29-16-18-11-13-19(14-12-18)23(28)31-24(2,3)4/h6-15H,16H2,1-5H3/b25-15+",YYJNOYZRYGDPNH-MFKUBSTISA-N,Cn1nc(C)c(\C=N\OCc2ccc(cc2)C(=O)OC(C)(C)C)c1Oc3ccccc3,-7.4604
3429,B-3430,halfenprox,"InChI=1S/C24H23BrF2O3/c1-23(2,19-11-13-21(14-12-19)30-24(25,26)27)17-28-16-18-7-6-10-22(15-18)29-20-8-4-3-5-9-20/h3-15H,16-17H2,1-2H3",WIFXJBMOTMKRMM-UHFFFAOYSA-N,CC(C)(COCc1cccc(Oc2ccccc2)c1)c3ccc(OC(F)(F)Br)cc3,-9.9799
3430,B-3431,triazamate,"InChI=1S/C13H22N4O3S/c1-7-20-9(18)8-21-11-14-10(13(2,3)4)15-17(11)12(19)16(5)6/h7-8H2,1-6H3",NKNFWVNSBIXGLL-UHFFFAOYSA-N,CCOC(=O)CSc1nc(nn1C(=O)N(C)C)C(C)(C)C,-2.861
3431,B-3432,halofenozide,"InChI=1S/C18H19ClN2O2/c1-18(2,3)21(17(23)14-7-5-4-6-8-14)20-16(22)13-9-11-15(19)12-10-13/h4-12H,1-3H3,(H,20,22)",CNKHSLKYRMDDNQ-UHFFFAOYSA-N,CC(C)(C)N(NC(=O)c1ccc(Cl)cc1)C(=O)c2ccccc2,-4.4404
3432,B-3433,tebufenozide,"InChI=1S/C22H28N2O2/c1-7-17-8-10-18(11-9-17)20(25)23-24(22(4,5)6)21(26)19-13-15(2)12-16(3)14-19/h8-14H,7H2,1-6H3,(H,23,25)",QYPNKSZPJQQLRK-UHFFFAOYSA-N,CCc1ccc(cc1)C(=O)NN(C(=O)c2cc(C)cc(C)c2)C(C)(C)C,-5.6281
3433,B-3434,cyclanilide,"InChI=1S/C11H9Cl2NO3/c12-5-1-2-9(8(13)3-5)14-10(15)6-4-7(6)11(16)17/h1-3,6-7H,4H2,(H,14,15)(H,16,17)",DIOZMSACJPTBST-UHFFFAOYSA-N,OC(=O)C1CC1C(=O)Nc2ccc(Cl)cc2Cl,-3.8697
3434,B-3435,fenoxaprop-p,"InChI=1S/C16H12ClNO5/c1-9(15(19)20)21-11-3-5-12(6-4-11)22-16-18-13-7-2-10(17)8-14(13)23-16/h2-9H,1H3,(H,19,20)",MPPOHAUSNPTFAJ-UHFFFAOYSA-N,CC(Oc1ccc(Oc2oc3cc(Cl)ccc3n2)cc1)C(O)=O,-3.092
3435,B-3436,imazamox,"InChI=1S/C15H19N3O4/c1-8(2)15(3)14(21)17-12(18-15)11-10(13(19)20)5-9(6-16-11)7-22-4/h5-6,8H,7H2,1-4H3,(H,19,20)(H,17,18,21)",NUPJIGQFXCQJBK-UHFFFAOYSA-N,COCc1cnc(C2=NC(C)(C(C)C)C(=O)N2)c(c1)C(O)=O,-1.84
3436,B-3437,fenbuconazole,"InChI=1S/C19H17ClN4/c20-18-8-6-16(7-9-18)10-11-19(12-21,13-24-15-22-14-23-24)17-4-2-1-3-5-17/h1-9,14-15H,10-11,13H2",RQDJADAKIFFEKQ-UHFFFAOYSA-N,Clc1ccc(CCC(Cn2cncn2)(C#N)c3ccccc3)cc1,-6.2264
3437,B-3438,"2-oxetanone, 3-ethyl-4-methyl-, (3s-trans)-","InChI=1S/C6H10O2/c1-3-5-4(2)8-6(5)7/h4-5H,3H2,1-2H3/t4-,5-/m0/s1",PAIRTJOPUAQMRQ-WHFBIAKZSA-N,CC[C@H]1[C@H](C)OC1=O,-0.6665
3438,B-3439,"azetidine, 1-[benzoyloxy(acetyl)]-","InChI=1S/C12H13NO3/c14-11(13-7-4-8-13)9-16-12(15)10-5-2-1-3-6-10/h1-3,5-6H,4,7-9H2",RSDMFNVRFBIYRK-UHFFFAOYSA-N,O=C(COC(=O)c1ccccc1)N2CCC2,-1.6085
3439,B-3440,"1h-azepine, hexahydro-1-[(benzoyloxy)acetyl]-","InChI=1S/C15H19NO3/c17-14(16-10-6-1-2-7-11-16)12-19-15(18)13-8-4-3-5-9-13/h3-5,8-9H,1-2,6-7,10-12H2",FZBXGZBXWFNCQY-UHFFFAOYSA-N,O=C(COC(=O)c1ccccc1)N2CCCCCC2,-2.5421
3440,B-3441,"4-piperidinol, 1-[(benzoyloxy)acetyl]-","InChI=1S/C14H17NO4/c16-12-6-8-15(9-7-12)13(17)10-19-14(18)11-4-2-1-3-5-11/h1-5,12,16H,6-10H2",YVWZWRFAFZRJGU-UHFFFAOYSA-N,OC1CCN(CC1)C(=O)COC(=O)c2ccccc2,-1.3486
3441,B-3442,"l-proline, n-[(benzoyloxy)acetyl]-","InChI=1S/C14H15NO5/c16-12(15-8-4-7-11(15)13(17)18)9-20-14(19)10-5-2-1-3-6-10/h1-3,5-6,11H,4,7-9H2,(H,17,18)/t11-/m0/s1",GZXGHZDSFNQRKK-NSHDSACASA-N,OC(=O)[C@@H]1CCCN1C(=O)COC(=O)c2ccccc2,-1.5917
3442,B-3443,"l-proline, n-[(benzoyloxy)acetyl]-, methyl ester","InChI=1S/C15H17NO5/c1-20-15(19)12-8-5-9-16(12)13(17)10-21-14(18)11-6-3-2-4-7-11/h2-4,6-7,12H,5,8-10H2,1H3/t12-/m0/s1",UQIKOYWGLUXMNE-LBPRGKRZSA-N,COC(=O)[C@@H]1CCCN1C(=O)COC(=O)c2ccccc2,-2.0841
3443,B-3444,"propanamide, 3-(benzoyloxy)-n,n-dimethyl-","InChI=1S/C12H15NO3/c1-13(2)11(14)8-9-16-12(15)10-6-4-3-5-7-10/h3-7H,8-9H2,1-2H3",IZIGQEAJOSUMEQ-UHFFFAOYSA-N,CN(C)C(=O)CCOC(=O)c1ccccc1,-1.0994
3444,B-3445,"butanamide, 4-(benzoyloxy)-n,n-dimethyl-","InChI=1S/C13H17NO3/c1-14(2)12(15)9-6-10-17-13(16)11-7-4-3-5-8-11/h3-5,7-8H,6,9-10H2,1-2H3",FNROXVCRPXYLRT-UHFFFAOYSA-N,CN(C)C(=O)CCCOC(=O)c1ccccc1,-1.2286
3445,B-3446,"acetamide, n-acetyl-2-(benzoyloxy)-n-methyl-","InChI=1S/C12H13NO4/c1-9(14)13(2)11(15)8-17-12(16)10-6-4-3-5-7-10/h3-7H,8H2,1-2H3",JQUIGGQYRQVIIE-UHFFFAOYSA-N,CN(C(C)=O)C(=O)COC(=O)c1ccccc1,-2.8664
3446,B-3447,"acetamide, 2-(benzoyloxy)-n-(1-methylethyl)-","InChI=1S/C12H15NO3/c1-9(2)13-11(14)8-16-12(15)10-6-4-3-5-7-10/h3-7,9H,8H2,1-2H3,(H,13,14)",FUWATACATASMHP-UHFFFAOYSA-N,CC(C)NC(=O)COC(=O)c1ccccc1,-2.7321
3447,B-3448,"acetamide, 2-(benzoyloxy)-n-butyl-","InChI=1S/C13H17NO3/c1-2-3-9-14-12(15)10-17-13(16)11-7-5-4-6-8-11/h4-8H,2-3,9-10H2,1H3,(H,14,15)",FUKCEEDRHGCYHH-UHFFFAOYSA-N,CCCCNC(=O)COC(=O)c1ccccc1,-2.7588
3448,B-3449,"acetamide, 2-(benzoyloxy)-n-hexyl-","InChI=1S/C15H21NO3/c1-2-3-4-8-11-16-14(17)12-19-15(18)13-9-6-5-7-10-13/h5-7,9-10H,2-4,8,11-12H2,1H3,(H,16,17)",ZTEWWPFYEDRRRL-UHFFFAOYSA-N,CCCCCCNC(=O)COC(=O)c1ccccc1,-3.9019999999999997
3449,B-3450,"propanamide, 2-[[(benzoyloxy)acetyl]amino]-","InChI=1S/C12H14N2O4/c1-8(11(13)16)14-10(15)7-18-12(17)9-5-3-2-4-6-9/h2-6,8H,7H2,1H3,(H2,13,16)(H,14,15)",GUNGCOIXSOZDCM-UHFFFAOYSA-N,CC(NC(=O)COC(=O)c1ccccc1)C(N)=O,-2.7172
3450,B-3451,bromuconazole,"InChI=1S/C13H12BrCl2N3O/c14-9-4-13(20-5-9,6-19-8-17-7-18-19)11-2-1-10(15)3-12(11)16/h1-3,7-9H,4-6H2",HJJVPARKXDDIQD-UHFFFAOYSA-N,Clc1ccc(c(Cl)c1)C2(CC(Br)CO2)Cn3cncn3,-3.8775
3451,B-3452,novaluron,"InChI=1S/C17H9ClF8N2O4/c18-8-6-7(4-5-11(8)31-16(22,23)14(21)32-17(24,25)26)27-15(30)28-13(29)12-9(19)2-1-3-10(12)20/h1-6,14H,(H2,27,28,29,30)",NJPPVKZQTLUDBO-UHFFFAOYSA-N,FC(OC(F)(F)F)C(F)(F)Oc1ccc(NC(=O)NC(=O)c2c(F)cccc2F)cc1Cl,-6.9675
3452,B-3453,sec-butyl ethylamine,"InChI=1S/C6H15N/c1-4-6(3)7-5-2/h6-7H,4-5H2,1-3H3",KFYKZKISJBGVMR-UHFFFAOYSA-N,CCNC(C)CC,-0.21
3453,B-3454,"dl-lysine, n2-benzoyl-","InChI=1S/C13H18N2O3/c14-9-5-4-8-11(13(17)18)15-12(16)10-6-2-1-3-7-10/h1-3,6-7,11H,4-5,8-9,14H2,(H,15,16)(H,17,18)",IYHOIXNPULYXFO-UHFFFAOYSA-N,NCCCCC(NC(=O)c1ccccc1)C(O)=O,-2.2845
3454,B-3455,fluthiacet-methyl,"InChI=1S/C15H15ClFN3O3S2/c1-23-13(21)8-24-12-7-11(10(17)6-9(12)16)18-14-19-4-2-3-5-20(19)15(22)25-14/h6-7H,2-5,8H2,1H3",ZCNQYNHDVRPZIH-UHFFFAOYSA-N,COC(=O)CSc1cc(N=C2SC(=O)N3CCCCN23)c(F)cc1Cl,-5.6768
3455,B-3456,l-altraric acid,"InChI=1S/C6H10O8/c7-1(3(9)5(11)12)2(8)4(10)6(13)14/h1-4,7-10H,(H,11,12)(H,13,14)/t1-,2+,3-,4-/m1/s1",DSLZVSRJTYRBFB-GJPGBQJBSA-N,O[C@@H]([C@@H](O)[C@@H](O)C(O)=O)[C@@H](O)C(O)=O,0.1999
3456,B-3457,thiazopyr,"InChI=1S/C16H17F5N2O2S/c1-7(2)6-8-9(15(24)25-3)11(13(17)18)23-12(16(19,20)21)10(8)14-22-4-5-26-14/h7,13H,4-6H2,1-3H3",YIJZJEYQBAAWRJ-UHFFFAOYSA-N,COC(=O)c1c(CC(C)C)c(C2=NCCS2)c(nc1C(F)F)C(F)(F)F,-5.2002
3457,B-3458,Spiroxamine,"InChI=1S/C18H35NO2/c1-6-12-19(7-2)13-16-14-20-18(21-16)10-8-15(9-11-18)17(3,4)5/h15-16H,6-14H2,1-5H3",PUYXTUJWRLOUCW-UHFFFAOYSA-N,CCCN(CC)CC1COC2(CCC(CC2)C(C)(C)C)O1,-2.8014
3458,B-3459,"benzeneethanol, 4-hydroxy-3-nitro-","InChI=1S/C8H9NO4/c10-4-3-6-1-2-8(11)7(5-6)9(12)13/h1-2,5,10-11H,3-4H2",IPWLQQBKTBBLID-UHFFFAOYSA-N,OCCc1ccc(O)c(c1)[N+]([O-])=O,-1.1556
3459,B-3460,"1(3h)-isobenzofuranone, 6-amino-3-methyl-","InChI=1S/C9H9NO2/c1-5-7-3-2-6(10)4-8(7)9(11)12-5/h2-5H,10H2,1H3",AJZKMDAYNXJZOR-UHFFFAOYSA-N,CC1OC(=O)c2cc(N)ccc12,-1.7891
3460,B-3461,transfluthrin,"InChI=1S/C15H12Cl2F4O2/c1-15(2)7(3-10(16)17)11(15)14(22)23-5-6-12(20)8(18)4-9(19)13(6)21/h3-4,7,11H,5H2,1-2H3/t7-,11+/m1/s1",DDVNRFNDOPPVQJ-HQJQHLMTSA-N,CC1(C)[C@H](C=C(Cl)Cl)[C@H]1C(=O)OCc2c(F)c(F)cc(F)c2F,-6.8137
3461,B-3462,"2-thiophenesulfonamide, 4-(4-methoxybenzoyl)-","InChI=1S/C12H11NO4S2/c1-17-10-4-2-8(3-5-10)12(14)9-6-11(18-7-9)19(13,15)16/h2-7H,1H3,(H2,13,15,16)",CNGDZXAWOIPFFX-UHFFFAOYSA-N,COc1ccc(cc1)C(=O)c2csc(c2)[S](N)(=O)=O,-4.4733
3462,B-3463,"2-thiophenesulfonamide, 4-(4-hydroxybenzoyl)-","InChI=1S/C11H9NO4S2/c12-18(15,16)10-5-8(6-17-10)11(14)7-1-3-9(13)4-2-7/h1-6,13H,(H2,12,15,16)",OJXOXNIZNJIMLU-UHFFFAOYSA-N,N[S](=O)(=O)c1scc(c1)C(=O)c2ccc(O)cc2,-2.8612
3463,B-3464,"2-furansulfonamide, 4-(4-methoxybenzoyl)-","InChI=1S/C12H11NO5S/c1-17-10-4-2-8(3-5-10)12(14)9-6-11(18-7-9)19(13,15)16/h2-7H,1H3,(H2,13,15,16)",OIEIIZQFSICKJF-UHFFFAOYSA-N,COc1ccc(cc1)C(=O)c2coc(c2)[S](N)(=O)=O,-4.1481