,ID,Name,InChI,InChIKey,SMILES,Solubility
1091,B-1092,"1,2-propanediol, 3-(2-methoxyphenoxy)-, 1-carbam","InChI=1S/C11H15NO5/c1-15-9-4-2-3-5-10(9)16-6-8(13)7-17-11(12)14/h2-5,8,13H,6-7H2,1H3,(H2,12,14)",GNXFOGHNGIVQEH-UHFFFAOYSA-N,COc1ccccc1OCC(O)COC(N)=O,-1.5251
1092,B-1093,"benzoic acid, sodium salt","InChI=1S/C7H6O2.Na/c8-7(9)6-4-2-1-3-5-6;/h1-5H,(H,8,9);/q;+1/p-1",WXMKPNITSTVMEF-UHFFFAOYSA-M,[Na+].[O-]C(=O)c1ccccc1,0.5864
1093,B-1094,c.i. basic orange 2,"InChI=1S/C12H12N4.ClH/c13-9-6-7-12(11(14)8-9)16-15-10-4-2-1-3-5-10;/h1-8H,13-14H2;1H",MCTQNEBFZMBRSQ-UHFFFAOYSA-N,[H+].[Cl-].Nc1ccc(N=Nc2ccccc2)c(N)c1,-4.0947
1094,B-1095,"2,4-d, ethyl ester","InChI=1S/C10H10Cl2O3/c1-2-14-10(13)6-15-9-4-3-7(11)5-8(9)12/h3-5H,2,6H2,1H3",JSLBZIVMVVHMDJ-UHFFFAOYSA-N,CCOC(=O)COc1ccc(Cl)cc1Cl,-3.3503
1095,B-1096,"1,3-benzenediol, 4-pentyl-","InChI=1S/C11H16O2/c1-2-3-4-5-9-6-7-10(12)8-11(9)13/h6-8,12-13H,2-5H2,1H3",PJHYOCWMKYASAB-UHFFFAOYSA-N,CCCCCc1ccc(O)cc1O,-1.9548
1096,B-1097,isovaleryl diethylamide,"InChI=1S/C9H19NO/c1-5-10(6-2)9(11)7-8(3)4/h8H,5-7H2,1-4H3",QZMQDHNCNUGQSO-UHFFFAOYSA-N,CCN(CC)C(=O)CC(C)C,-0.5946
1097,B-1098,dmtt (dazomet),"InChI=1S/C5H10N2S2/c1-6-3-7(2)5(8)9-4-6/h3-4H2,1-2H3",QAYICIQNSGETAS-UHFFFAOYSA-N,CN1CSC(=S)N(C)C1,-1.7331
1098,B-1099,"2-propanol, 1,3-diiodo-","InChI=1S/C3H6I2O/c4-1-3(6)2-5/h3,6H,1-2H2",DNKPFCQEGBJJTE-UHFFFAOYSA-N,OC(CI)CI,-1.3971
1099,B-1100,"n,n-dimethylthiourea","InChI=1S/C3H8N2S/c1-4-3(6)5-2/h1-2H3,(H2,4,5,6)",VLCDUOXHFNUCKK-UHFFFAOYSA-N,CNC(=S)NC,0.9823
1100,B-1101,"1,1-dimethoxyethane","InChI=1S/C4H10O2/c1-4(5-2)6-3/h4H,1-3H3",SPEUIVXLLWOEMJ-UHFFFAOYSA-N,COC(C)OC,1.0452
1101,B-1102,butyl malonic acid,"InChI=1S/C7H12O4/c1-2-3-4-5(6(8)9)7(10)11/h5H,2-4H2,1H3,(H,8,9)(H,10,11)",MCRZWYDXIGCFKO-UHFFFAOYSA-N,CCCCC(C(O)=O)C(O)=O,0.4369
1102,B-1103,m-cymene,"InChI=1S/C10H14/c1-8(2)10-6-4-5-9(3)7-10/h4-8H,1-3H3",XCYJPXQACVEIOS-UHFFFAOYSA-N,CC(C)c1cccc(C)c1,-3.4994
1103,B-1104,2-chloro-4-methyl-6-(dimethylamino)pyrimidine,"InChI=1S/C7H10ClN3/c1-5-4-6(11(2)3)10-7(8)9-5/h4H,1-3H3",HJIUPFPIEBPYIE-UHFFFAOYSA-N,CN(C)c1cc(C)nc(Cl)n1,-1.2615
1104,B-1105,digallic acid,"InChI=1S/C14H10O9/c15-7-2-6(3-8(16)11(7)18)14(22)23-10-4-5(13(20)21)1-9(17)12(10)19/h1-4,15-19H,(H,20,21)",COVFEVWNJUOYRL-UHFFFAOYSA-N,OC(=O)c1cc(O)c(O)c(OC(=O)c2cc(O)c(O)c(O)c2)c1,-2.8092
1105,B-1106,4-ethylpyridine,"InChI=1S/C7H9N/c1-2-7-3-5-8-6-4-7/h3-6H,2H2,1H3",VJXRKZJMGVSXPX-UHFFFAOYSA-N,CCc1ccncc1,-0.0006
1106,B-1107,tropacocaine,"InChI=1S/C15H19NO2/c1-16-12-7-8-13(16)10-14(9-12)18-15(17)11-5-3-2-4-6-11/h2-6,12-14H,7-10H2,1H3",XQJMXPAEFMWDOZ-UHFFFAOYSA-N,CN1C2CCC1CC(C2)OC(=O)c3ccccc3,-2.1593
1107,B-1108,"2,6-dibromoquinonechloroimide",InChI=1S/C6H2Br2ClNO/c7-4-1-3(10-9)2-5(8)6(4)11/h1-2H,JYWKEVKEKOTYEX-UHFFFAOYSA-N,ClN=C1C=C(Br)C(=O)C(=C1)Br,-3.7068
1108,B-1109,"l-tyrosine, n-methyl-","InChI=1S/C10H13NO3/c1-11-9(10(13)14)6-7-2-4-8(12)5-3-7/h2-5,9,11-12H,6H2,1H3,(H,13,14)/t9-/m0/s1",AXDLCFOOGCNDST-VIFPVBQESA-N,CN[C@@H](Cc1ccc(O)cc1)C(O)=O,-2.1325
1109,B-1110,bis(2-chloroethyl)ethylamine,"InChI=1S/C6H13Cl2N/c1-2-9(5-3-7)6-4-8/h2-6H2,1H3",UQZPGHOJMQTOHB-UHFFFAOYSA-N,CCN(CCCl)CCCl,-3.0265
1110,B-1111,butyl cinnamate,"InChI=1S/C13H16O2/c1-2-3-11-15-13(14)10-9-12-7-5-4-6-8-12/h4-10H,2-3,11H2,1H3/b10-9+",OHHIVLJVBNCSHV-MDZDMXLPSA-N,CCCCOC(=O)/C=C/c1ccccc1,-1.6112
1111,B-1112,benzyl methyl ether,"InChI=1S/C8H10O/c1-9-7-8-5-3-2-4-6-8/h2-6H,7H2,1H3",GQKZBCPTCWJTAS-UHFFFAOYSA-N,COCc1ccccc1,-1.6098
1112,B-1113,c.i. disperse black 3,"InChI=1S/C14H16N4/c1-18(2)14-9-7-13(8-10-14)17-16-12-5-3-11(15)4-6-12/h3-10H,15H2,1-2H3",BVRIUXYMUSKBHG-UHFFFAOYSA-N,CN(C)c1ccc(cc1)N=Nc2ccc(N)cc2,-4.593999999999999
1113,B-1114,"2-propenoic acid, 3-(2-furanyl)-","InChI=1S/C7H6O3/c8-7(9)4-3-6-2-1-5-10-6/h1-5H,(H,8,9)/b4-3+",ZCJLOOJRNPHKAV-ONEGZZNKSA-N,OC(=O)/C=C/c1occc1,-1.8392
1114,B-1115,ethyl valerate,"InChI=1S/C7H14O2/c1-3-5-6-7(8)9-4-2/h3-6H2,1-2H3",ICMAFTSLXCXHRK-UHFFFAOYSA-N,CCCCC(=O)OCC,-1.7706
1115,B-1116,pentyl butyrate,"InChI=1S/C9H18O2/c1-3-5-6-8-11-9(10)7-4-2/h3-8H2,1-2H3",CFNJLPHOBMVMNS-UHFFFAOYSA-N,CCCCCOC(=O)CCC,-3.4212
1116,B-1117,2-methylpropyl propanoate,"InChI=1S/C7H14O2/c1-4-7(8)9-5-6(2)3/h6H,4-5H2,1-3H3",FZXRXKLUIMKDEL-UHFFFAOYSA-N,CCC(=O)OCC(C)C,-1.8841
1117,B-1118,"cyclopropane, methoxy-","InChI=1S/C4H8O/c1-5-4-2-3-4/h4H,2-3H2,1H3",ZUVAACFIEPYYOP-UHFFFAOYSA-N,COC1CC1,-0.1176
1118,B-1119,"1,2-ethylene dibromide",InChI=1S/C2H2Br2/c3-1-2-4/h1-2H/b2-1-,UWTUEMKLYAGTNQ-UPHRSURJSA-N,Br\C=C/Br,-1.3195
1119,B-1120,2-bromoethanol,"InChI=1S/C2H5BrO/c3-1-2-4/h4H,1-2H2",LDLCZOVUSADOIV-UHFFFAOYSA-N,OCCBr,0.9032
1120,B-1121,ethyl methyl ether,"InChI=1S/C3H8O/c1-3-4-2/h3H2,1-2H3",XOBKSJJDNFUZPF-UHFFFAOYSA-N,CCOC,-0.0799
1121,B-1122,"1,2-dimethylhydrazine","InChI=1S/C2H8N2/c1-3-4-2/h3-4H,1-2H3",DIIIISSCIXVANO-UHFFFAOYSA-N,CNNC,1.2211
1122,B-1123,"2,2,4-trimethylpentane","InChI=1S/C8H18/c1-7(2)6-8(3,4)5/h7H,6H2,1-5H3",NHTMVDHEPJAVLT-UHFFFAOYSA-N,CC(C)CC(C)(C)C,-4.6704
1123,B-1124,t-butyl acetate,"InChI=1S/C6H12O2/c1-5(7)8-6(2,3)4/h1-4H3",WMOVHXAZOJBABW-UHFFFAOYSA-N,CC(=O)OC(C)(C)C,-1.1443
1124,B-1125,dodecamethylcyclohexasiloxane,"InChI=1S/C12H36O6Si6/c1-19(2)13-20(3,4)15-22(7,8)17-24(11,12)18-23(9,10)16-21(5,6)14-19/h1-12H3",IUMSDRXLFWAGNT-UHFFFAOYSA-N,C[Si]1(C)O[Si](C)(C)O[Si](C)(C)O[Si](C)(C)O[Si](C)(C)O[Si](C)(C)O1,-7.9407
1125,B-1126,decamethylcyclopentasiloxane,"InChI=1S/C10H30O5Si5/c1-16(2)11-17(3,4)13-19(7,8)15-20(9,10)14-18(5,6)12-16/h1-10H3",XMSXQFUHVRWGNA-UHFFFAOYSA-N,C[Si]1(C)O[Si](C)(C)O[Si](C)(C)O[Si](C)(C)O[Si](C)(C)O1,-7.3387
1126,B-1127,dichloro(2-chlorovinyl)arsine (trans),InChI=1S/C2H2AsCl3/c4-2-1-3(5)6/h1-2H/b2-1+,GIKLTQKNOXNBNY-OWOJBTEDSA-N,Cl/C=C/[As](Cl)Cl,-2.6177
1127,B-1128,"1,1-dichlorobutane","InChI=1S/C4H8Cl2/c1-2-3-4(5)6/h4H,2-3H2,1H3",SEQRDAAUNCRFIT-UHFFFAOYSA-N,CCCC(Cl)Cl,-2.4036
1128,B-1129,barium formate,"InChI=1S/2CH2O2.Ba/c2*2-1-3;/h2*1H,(H,2,3);/q;;+2/p-2",UXFOSWFWQAUFFZ-UHFFFAOYSA-L,[Ba++].[O-]C=O.[O-]C=O,-0.0557
1129,B-1130,"butanoic acid, 3-amino-","InChI=1S/C4H9NO2/c1-3(5)2-4(6)7/h3H,2,5H2,1H3,(H,6,7)",OQEBBZSWEGYTPG-UHFFFAOYSA-N,CC(N)CC(O)=O,0.9867
1130,B-1131,acetoacetic acid,"InChI=1S/C4H6O3/c1-3(5)2-4(6)7/h2H2,1H3,(H,6,7)",WDJHALXBUFZDSR-UHFFFAOYSA-N,CC(=O)CC(O)=O,0.991
1131,B-1132,thioimidodicarbonic diamide,"InChI=1S/C2H5N3S2/c3-1(6)5-2(4)7/h(H5,3,4,5,6,7)",JIRRNZWTWJGJCT-UHFFFAOYSA-N,NC(=S)NC(N)=S,-1.6996
1132,B-1133,"2h-pyran-2,4(3h)-dione, 6-methyl-","InChI=1S/C6H6O3/c1-4-2-5(7)3-6(8)9-4/h2H,3H2,1H3",GYHBVAHWGBJKHA-UHFFFAOYSA-N,CC1=CC(=O)CC(=O)O1,-1.1185
1133,B-1134,chlorocyclohexane,"InChI=1S/C6H11Cl/c7-6-4-2-1-3-5-6/h6H,1-5H2",UNFUYWDGSFDHCW-UHFFFAOYSA-N,ClC1CCCCC1,-2.3752
1134,B-1135,"hexanedioic acid, 2-amino-","InChI=1S/C6H11NO4/c7-4(6(10)11)2-1-3-5(8)9/h4H,1-3,7H2,(H,8,9)(H,10,11)",OYIFNHCXNCRBQI-UHFFFAOYSA-N,NC(CCCC(O)=O)C(O)=O,-1.8648
1135,B-1136,isobutyl formate,"InChI=1S/C5H10O2/c1-5(2)3-7-4-6/h4-5H,3H2,1-2H3",AVMSWPWPYJVYKY-UHFFFAOYSA-N,CC(C)COC=O,-1.0006
1136,B-1137,n-butyl iodide,"InChI=1S/C4H9I/c1-2-3-4-5/h2-4H2,1H3",KMGBZBJJOKUPIA-UHFFFAOYSA-N,CCCCI,-2.9587
1137,B-1138,"1,3-dichloropropene (isomer mix)","InChI=1S/C3H4Cl2/c4-2-1-3-5/h1-2H,3H2/b2-1-",UOORRWUZONOOLO-UPHRSURJSA-N,ClC\C=C/Cl,-1.598
1138,B-1139,bis(chloromethyl) ether,InChI=1S/C2H4Cl2O/c3-1-5-2-4/h1-2H2,HRQGCQVOJVTVLU-UHFFFAOYSA-N,ClCOCCl,-0.7181
1139,B-1140,cyclopentadiene,"InChI=1S/C5H6/c1-2-4-5-3-1/h1-4H,5H2",ZSWFCLXCOIISFI-UHFFFAOYSA-N,C1C=CC=C1,-1.565
1140,B-1141,"ethanesulfonic acid, 2-[(aminoiminomethyl)amino]","InChI=1S/C3H9N3O3S/c4-3(5)6-1-2-10(7,8)9/h1-2H2,(H4,4,5,6)(H,7,8,9)",JKLRIMRKZBSSED-UHFFFAOYSA-N,NC(N)=NCC[S](O)(=O)=O,-0.6321
1141,B-1142,isobutyl nitrate,"InChI=1S/C4H9NO3/c1-4(2)3-8-5(6)7/h4H,3H2,1-2H3",LNNXFUZKZLXPOF-UHFFFAOYSA-N,CC(C)CO[N+]([O-])=O,-1.9521
1142,B-1143,1-chloropentane,"InChI=1S/C5H11Cl/c1-2-3-4-5-6/h2-5H2,1H3",SQCZQTSHSZLZIQ-UHFFFAOYSA-N,CCCCCCl,-2.7324
1143,B-1144,barium acetate,"InChI=1S/2C2H4O2.Ba/c2*1-2(3)4;/h2*1H3,(H,3,4);/q;;+2/p-2",ITHZDDVSAWDQPZ-UHFFFAOYSA-L,[Ba++].CC([O-])=O.CC([O-])=O,0.1948
1144,B-1145,n-methyl butylcarbamate,"InChI=1S/C6H13NO2/c1-5(2)3-4-9-6(7)8/h5H,3-4H2,1-2H3,(H2,7,8)",OLCIOXGQTLVZQT-UHFFFAOYSA-N,CC(C)CCOC(N)=O,-1.4403
1145,B-1146,"1-butanol, 3-methyl-, nitrate","InChI=1S/C5H11NO3/c1-5(2)3-4-9-6(7)8/h5H,3-4H2,1-2H3",NTHGIYFSMNNHSC-UHFFFAOYSA-N,CC(C)CCO[N+]([O-])=O,-2.4809
1146,B-1147,strontium acetate,"InChI=1S/2C2H4O2.Sr/c2*1-2(3)4;/h2*1H3,(H,3,4);/q;;+2/p-2",RXSHXLOMRZJCLB-UHFFFAOYSA-L,[Sr++].CC([O-])=O.CC([O-])=O,0.1446
1147,B-1148,diisopentyl ether,"InChI=1S/C10H22O/c1-9(2)5-7-11-8-6-10(3)4/h9-10H,5-8H2,1-4H3",AQZGPSLYZOOYQP-UHFFFAOYSA-N,CC(C)CCOCCC(C)C,-2.8984
1148,B-1149,1-chlorohexane,"InChI=1S/C6H13Cl/c1-2-3-4-5-6-7/h2-6H2,1H3",MLRVZFYXUZQSRU-UHFFFAOYSA-N,CCCCCCCl,-3.1224
1149,B-1150,pentanedinitrile,InChI=1S/C5H6N2/c6-4-2-1-3-5-7/h1-3H2,ZTOMUSMDRMJOTH-UHFFFAOYSA-N,N#CCCCC#N,1.0263
1150,B-1151,n-hexadecane,"InChI=1S/C16H34/c1-3-5-7-9-11-13-15-16-14-12-10-8-6-4-2/h3-16H2,1-2H3",DCAYPVUWAIABOU-UHFFFAOYSA-N,CCCCCCCCCCCCCCCC,-8.4007
1151,B-1152,n1-(4-so2nh2-ph)sulfanilamide,"InChI=1S/C12H13N3O4S2/c13-9-1-5-12(6-2-9)21(18,19)15-10-3-7-11(8-4-10)20(14,16)17/h1-8,15H,13H2,(H2,14,16,17)",GCQZFVAHUZIDRP-UHFFFAOYSA-N,Nc1ccc(cc1)[S](=O)(=O)Nc2ccc(cc2)[S](N)(=O)=O,-2.7592
1152,B-1153,"2-hydroxypropanoic acid, methyl ester","InChI=1S/C4H8O3/c1-3(5)4(6)7-2/h3,5H,1-2H3",LPEKGGXMPWTOCB-UHFFFAOYSA-N,COC(=O)C(C)O,0.9825
1153,B-1154,alpha-methylene butyrolactone,InChI=1S/C5H6O2/c1-4-2-3-7-5(4)6/h1-3H2,GSLDEZOOOSBFGP-UHFFFAOYSA-N,C=C1CCOC1=O,0.1844
1154,B-1155,hyocholic acid,"InChI=1S/C24H40O5/c1-13(4-7-19(26)27)15-5-6-16-20-17(9-11-23(15,16)2)24(3)10-8-14(25)12-18(24)21(28)22(20)29/h13-18,20-22,25,28-29H,4-12H2,1-3H3,(H,26,27)/t13-,14-,15-,16+,17+,18+,20+,21-,22+,23-,24-/m1/s1",DKPMWHFRUGMUKF-KWXDGCAGSA-N,C[C@H](CCC(O)=O)[C@H]1CC[C@H]2[C@@H]3[C@H](O)[C@H](O)[C@@H]4C[C@H](O)CC[C@]4(C)[C@H]3CC[C@]12C,-4.3465
1155,B-1156,ethyl biscoumacetate,"InChI=1S/C22H16O8/c1-2-28-20(25)15(16-18(23)11-7-3-5-9-13(11)29-21(16)26)17-19(24)12-8-4-6-10-14(12)30-22(17)27/h3-10,15,26-27H,2H2,1H3",SEGSDVUVOWIWFX-UHFFFAOYSA-N,CCOC(=O)C(C1=C(O)Oc2ccccc2C1=O)C3=C(O)Oc4ccccc4C3=O,-3.4264
1156,B-1157,o-thymotic acid,"InChI=1S/C11H14O3/c1-6(2)8-5-4-7(3)9(10(8)12)11(13)14/h4-6,12H,1-3H3,(H,13,14)",FNWNGQGTFICQJU-UHFFFAOYSA-N,CC(C)c1ccc(C)c(C(O)=O)c1O,-3.2883
1157,B-1158,quinine bisulfate,"InChI=1S/C20H24N2O2.H2O4S/c1-3-13-12-22-9-7-14(13)10-19(22)20(23)16-6-8-21-18-5-4-15(24-2)11-17(16)18;1-5(2,3)4/h3-6,8,11,13-14,19-20,23H,1,7,9-10,12H2,2H3;(H2,1,2,3,4)",AKYHKWQPZHDOBW-UHFFFAOYSA-N,COc1ccc2nccc(C(O)C3CC4CCN3CC4C=C)c2c1.O[S](O)(=O)=O,-1.5924
1158,B-1159,amisometradine,"InChI=1S/C9H13N3O2/c1-6(2)5-12-7(10)4-8(13)11(3)9(12)14/h4H,1,5,10H2,2-3H3",FXNYSZHYMGWWEZ-UHFFFAOYSA-N,CN1C(=O)C=C(N)N(CC(C)=C)C1=O,-0.9895
1159,B-1160,nebularine,"InChI=1S/C10H12N4O4/c15-2-6-7(16)8(17)10(18-6)14-4-13-5-1-11-3-12-9(5)14/h1,3-4,6-8,10,15-17H,2H2/t6-,7-,8-,10-/m1/s1",MRWXACSTFXYYMV-FDDDBJFASA-N,OC[C@H]1O[C@H]([C@H](O)[C@@H]1O)n2cnc3cncnc23,-0.4018
1160,B-1161,1-nitro-2-naphthol,"InChI=1S/C10H7NO3/c12-9-6-5-7-3-1-2-4-8(7)10(9)11(13)14/h1-6,12H",SSHIVHKMGVBXTJ-UHFFFAOYSA-N,Oc1ccc2ccccc2c1[N+]([O-])=O,-2.9758
1161,B-1162,"2,4,6-trichloro-3-methylphenol","InChI=1S/C7H5Cl3O/c1-3-4(8)2-5(9)7(11)6(3)10/h2,11H,1H3",QTAATZDGGZYBDC-UHFFFAOYSA-N,Cc1c(Cl)cc(Cl)c(O)c1Cl,-3.2761
1162,B-1163,"benzeneacetic acid, .alpha.-(hydroxymethyl)-,","InChI=1S/C9H10O3/c10-6-8(9(11)12)7-4-2-1-3-5-7/h1-5,8,10H,6H2,(H,11,12)",JACRWUWPXAESPB-UHFFFAOYSA-N,OCC(C(O)=O)c1ccccc1,-0.9195
1163,B-1164,9-methyl-9-azabicyclo[3.3.1]nonan-3-one,"InChI=1S/C9H15NO/c1-10-7-3-2-4-8(10)6-9(11)5-7/h7-8H,2-6H2,1H3",RHWSKVCZXBAWLZ-UHFFFAOYSA-N,CN1C2CCCC1CC(=O)C2,0.4167
1164,B-1165,"3-pyridinecarboxylic acid, hydrazide","InChI=1S/C6H7N3O/c7-9-6(10)5-2-1-3-8-4-5/h1-4H,7H2,(H,9,10)",KFUSANSHCADHNJ-UHFFFAOYSA-N,NNC(=O)c1cccnc1,-0.1372
1165,B-1166,5-nitro-2-propoxyaniline,"InChI=1S/C9H12N2O3/c1-2-5-14-9-4-3-7(11(12)13)6-8(9)10/h3-4,6H,2,5,10H2,1H3",RXQCEGOUSFBKPI-UHFFFAOYSA-N,CCCOc1ccc(cc1N)[N+]([O-])=O,-3.1592
1166,B-1167,methyl oxalate,InChI=1S/C4H6O4/c1-7-3(5)4(6)8-2/h1-2H3,LOMVENUNSWAXEN-UHFFFAOYSA-N,COC(=O)C(=O)OC,-0.2919
1167,B-1168,5-methylcytosine,"InChI=1S/C5H7N3O/c1-3-2-7-5(9)8-4(3)6/h2H,1H3,(H3,6,7,8,9)",LRSASMSXMSNRBT-UHFFFAOYSA-N,CC1=C(N)NC(=O)N=C1,-0.5595
1168,B-1169,methazolamide,"InChI=1S/C5H8N4O3S2/c1-3(10)7-4-9(2)8-5(13-4)14(6,11)12/h1-2H3,(H2,6,11,12)",FLOSMHQXBMRNHR-UHFFFAOYSA-N,CN1N=C(SC1=NC(C)=O)[S](N)(=O)=O,-1.8293
1169,B-1170,3-nitrophenol,"InChI=1S/C6H5NO3/c8-6-3-1-2-5(4-6)7(9)10/h1-4,8H",RTZZCYNQPHTPPL-UHFFFAOYSA-N,Oc1cccc(c1)[N+]([O-])=O,-1.013
1170,B-1171,"1,3,5-benzenetricarboxylic acid","InChI=1S/C9H6O6/c10-7(11)4-1-5(8(12)13)3-6(2-4)9(14)15/h1-3H,(H,10,11)(H,12,13)(H,14,15)",QMKYBPDZANOJGF-UHFFFAOYSA-N,OC(=O)c1cc(cc(c1)C(O)=O)C(O)=O,-0.9026
1171,B-1172,methyldopa,"InChI=1S/C10H13NO4/c1-10(11,9(14)15)5-6-2-3-7(12)8(13)4-6/h2-4,12-13H,5,11H2,1H3,(H,14,15)/t10-/m0/s1",CJCSPKMFHVPWAR-JTQLQIEISA-N,C[C@](N)(Cc1ccc(O)c(O)c1)C(O)=O,-1.3247
1172,B-1173,maleanilic acid,"InChI=1S/C10H9NO3/c12-9(6-7-10(13)14)11-8-4-2-1-3-5-8/h1-7H,(H,11,12)(H,13,14)/b7-6-",WHZLCOICKHIPRL-SREVYHEPSA-N,OC(=O)\C=C/C(=O)Nc1ccccc1,-2.2815
1173,B-1174,nifuradene,"InChI=1S/C8H8N4O4/c13-8-9-3-4-11(8)10-5-6-1-2-7(16-6)12(14)15/h1-2,5H,3-4H2,(H,9,13)/b10-5+",VSVAVMVWTLLTCH-BJMVGYQFSA-N,[O-][N+](=O)c1oc(cc1)\C=N\N2CCNC2=O,-3.3572
1174,B-1175,d-tyrosine,"InChI=1S/C9H11NO3/c10-8(9(12)13)5-6-1-3-7(11)4-2-6/h1-4,8,11H,5,10H2,(H,12,13)/t8-/m1/s1",OUYCCCASQSFEME-MRVPVSSYSA-N,N[C@H](Cc1ccc(O)cc1)C(O)=O,-2.6049
1175,B-1176,dl-tyrosine,"InChI=1S/C9H11NO3/c10-8(9(12)13)5-6-1-3-7(11)4-2-6/h1-4,8,11H,5,10H2,(H,12,13)",OUYCCCASQSFEME-UHFFFAOYSA-N,NC(Cc1ccc(O)cc1)C(O)=O,-2.6561
1176,B-1177,triglycine,"InChI=1S/C6H11N3O4/c7-1-4(10)8-2-5(11)9-3-6(12)13/h1-3,7H2,(H,8,10)(H,9,11)(H,12,13)",XKUKSGPZAADMRA-UHFFFAOYSA-N,NCC(=O)NCC(=O)NCC(O)=O,-0.5097
1177,B-1178,zinc valerate,"InChI=1S/2C5H10O2.Zn/c2*1-2-3-4-5(6)7;/h2*2-4H2,1H3,(H,6,7);/q;;+2/p-2",BUDAIZWUWHWZPQ-UHFFFAOYSA-L,[Zn++].CCCCC([O-])=O.CCCCC([O-])=O,-1.2722
1178,B-1179,oxiranemethanol,"InChI=1S/C3H6O2/c4-1-3-2-5-3/h3-4H,1-2H2",CTKINSOISVBQLD-UHFFFAOYSA-N,OCC1CO1,1.1303
1179,B-1180,methyl isothiocyanate,InChI=1S/C2H3NS/c1-3-2-4/h1H3,LGDSHSYDSCRFAB-UHFFFAOYSA-N,CN=C=S,-0.9832
1180,B-1181,octamethyltetrasiloxane,"InChI=1S/C8H24O4Si4/c1-13(2)9-14(3,4)11-16(7,8)12-15(5,6)10-13/h1-8H3",HMMGMWAXVFQUOA-UHFFFAOYSA-N,C[Si]1(C)O[Si](C)(C)O[Si](C)(C)O[Si](C)(C)O1,-7.7732
1181,B-1182,nitroguanidine,"InChI=1S/CH4N4O2/c2-1(3)4-5(6)7/h(H4,2,3,4)",IDCPFAYURAQKDZ-UHFFFAOYSA-N,NC(N)=N[N+]([O-])=O,-1.3739
1182,B-1183,2-pyrimidone,"InChI=1S/C4H4N2O/c7-4-5-2-1-3-6-4/h1-3H,(H,5,6,7)",VTGOHKSTWXHQJK-UHFFFAOYSA-N,O=C1NC=CC=N1,0.6749
1183,B-1184,methyl propyl ether,"InChI=1S/C4H10O/c1-3-4-5-2/h3-4H2,1-2H3",VNKYTQGIUYNRMY-UHFFFAOYSA-N,CCCOC,-0.3857
1184,B-1185,1-monobutyrin,"InChI=1S/C7H14O4/c1-2-3-7(10)11-5-6(9)4-8/h6,8-9H,2-5H2,1H3",RIEABXYBQSLTFR-UHFFFAOYSA-N,CCCC(=O)OCC(O)CO,-1.335
1185,B-1186,zinc acetate,"InChI=1S/2C2H4O2.Zn/c2*1-2(3)4;/h2*1H3,(H,3,4);/q;;+2/p-2",DJWUNCQRNNEAKC-UHFFFAOYSA-L,[Zn++].CC([O-])=O.CC([O-])=O,0.2179
1186,B-1187,allyl ether,"InChI=1S/C6H10O/c1-3-5-7-6-4-2/h3-4H,1-2,5-6H2",ATVJXMYDOSMEPO-UHFFFAOYSA-N,C=CCOCC=C,-0.0206
1187,B-1188,zinc formate,"InChI=1S/2CH2O2.Zn/c2*2-1-3;/h2*1H,(H,2,3);/q;;+2/p-2",XOBMCBQSUCOAOC-UHFFFAOYSA-L,[Zn++].[O-]C=O.[O-]C=O,-0.4755
1188,B-1189,carbon tetrabromide,"InChI=1S/CBr4/c2-1(3,4)5",HJUGFYREWKUQJT-UHFFFAOYSA-N,BrC(Br)(Br)Br,-3.1404
1189,B-1190,fluoromethyl sulfone,"InChI=1S/CH3FO2S/c1-5(2,3)4/h1H3",KNWQLFOXPQZGPX-UHFFFAOYSA-N,C[S](F)(=O)=O,-0.5145
1190,B-1191,"2,2-dimethyloxirane","InChI=1S/C4H8O/c1-4(2)3-5-4/h3H2,1-2H3",GELKGHVAFRCJNA-UHFFFAOYSA-N,CC1(C)CO1,-0.0946
1191,B-1192,"2-propanol, 1-chloro-2-methyl-","InChI=1S/C4H9ClO/c1-4(2,6)3-5/h6H,3H2,1-2H3",JNOZGFXJZQXOSU-UHFFFAOYSA-N,CC(C)(O)CCl,0.1602
1192,B-1193,"methane, bromotrinitro-","InChI=1S/CBrN3O6/c2-1(3(6)7,4(8)9)5(10)11",KWSSHZBBUQSMKF-UHFFFAOYSA-N,[O-][N+](=O)C(Br)([N+]([O-])=O)[N+]([O-])=O,-1.7705
1193,B-1194,heroin,"InChI=1S/C21H23NO5/c1-11(23)25-16-6-4-13-10-15-14-5-7-17(26-12(2)24)20-21(14,8-9-22(15)3)18(13)19(16)27-20/h4-7,14-15,17,20H,8-10H2,1-3H3/t14-,15+,17-,20-,21-/m0/s1",GVGLGOZIDCSQPN-PVHGPHFFSA-N,CN1CC[C@]23[C@H]4Oc5c(OC(C)=O)ccc(C[C@@H]1[C@@H]2C=C[C@@H]4OC(C)=O)c35,-2.7894
1194,B-1195,"3,3-dimethylpentane","InChI=1S/C7H16/c1-5-7(3,4)6-2/h5-6H2,1-4H3",AEXMKKGTQYQZCS-UHFFFAOYSA-N,CCC(C)(C)CC,-4.2286
1195,B-1196,ethion,"InChI=1S/C9H22O4P2S4/c1-5-10-14(16,11-6-2)18-9-19-15(17,12-7-3)13-8-4/h5-9H2,1-4H3",RIZMRRKBZQXFOY-UHFFFAOYSA-N,CCO[P](=S)(OCC)SCS[P](=S)(OCC)OCC,-5.2838
1196,B-1197,3-methyl-1-butene,"InChI=1S/C5H10/c1-4-5(2)3/h4-5H,1H2,2-3H3",YHQXBTXEYZIYOV-UHFFFAOYSA-N,CC(C)C=C,-2.7319999999999998
1197,B-1198,2-methyl-1-butene,"InChI=1S/C5H10/c1-4-5(2)3/h2,4H2,1,3H3",MHNNAWXXUZQSNM-UHFFFAOYSA-N,CCC(C)=C,-2.7307
1198,B-1199,3-chloro-2-methylpropene,"InChI=1S/C4H7Cl/c1-4(2)3-5/h1,3H2,2H3",OHXAOPZTJOUYKM-UHFFFAOYSA-N,CC(=C)CCl,-1.8108
1199,B-1200,"1,2-dichloropropene","InChI=1S/C3H4Cl2/c1-3(5)2-4/h2H,1H3/b3-2-",PPKPKFIWDXDAGC-IHWYPQMZSA-N,C\C(Cl)=C\Cl,-1.6138
1200,B-1201,"2-butanol, 3-chloro-","InChI=1S/C4H9ClO/c1-3(5)4(2)6/h3-4,6H,1-2H3",XKEHIUIIEXXHJX-UHFFFAOYSA-N,CC(O)C(C)Cl,-0.2122
1201,B-1202,"1,2:3,4-diepoxybutane","InChI=1S/C4H6O2/c1-3(5-1)4-2-6-4/h3-4H,1-2H2/t3-,4+",ZFIVKAOQEXOYFY-ZXZARUISSA-N,C1O[C@@H]1[C@H]2CO2,1.065
1202,B-1203,"2,2,3-trimethylpentane","InChI=1S/C8H18/c1-6-7(2)8(3,4)5/h7H,6H2,1-5H3",XTDQDBVBDLYELW-UHFFFAOYSA-N,CCC(C)C(C)(C)C,-4.6776
1203,B-1204,trans-terpin,"InChI=1S/C10H20O2/c1-9(2,11)8-4-6-10(3,12)7-5-8/h8,11-12H,4-7H2,1-3H3",RBNWAMSGVWEHFP-UHFFFAOYSA-N,CC(C)(O)C1CCC(C)(O)CC1,-2.2362
1204,B-1205,"2,3-dimethylpentane","InChI=1S/C7H16/c1-5-7(4)6(2)3/h6-7H,5H2,1-4H3",WGECXQBGLLYSFP-UHFFFAOYSA-N,CCC(C)C(C)C,-4.2808
1205,B-1206,3-methyl-2-pentanol,"InChI=1S/C6H14O/c1-4-5(2)6(3)7/h5-7H,4H2,1-3H3",ZXNBBWHRUSXUFZ-UHFFFAOYSA-N,CCC(C)C(C)O,-0.7216
1206,B-1207,3-methylpentan-2-one,"InChI=1S/C6H12O/c1-4-5(2)6(3)7/h5H,4H2,1-3H3",UIHCLUNTQKBZGK-UHFFFAOYSA-N,CCC(C)C(C)=O,-0.6805
1207,B-1208,2-methyl-3-pentanol,"InChI=1S/C6H14O/c1-4-6(7)5(2)3/h5-7H,4H2,1-3H3",ISTJMQSHILQAEC-UHFFFAOYSA-N,CCC(O)C(C)C,-0.7062
1208,B-1209,2-methyl-3-pentanone,"InChI=1S/C6H12O/c1-4-6(7)5(2)3/h5H,4H2,1-3H3",HYTRYEXINDDXJK-UHFFFAOYSA-N,CCC(=O)C(C)C,-0.8106
1209,B-1210,"propanoic acid, 3-amino-2-hydroxy-","InChI=1S/C3H7NO3/c4-1-2(5)3(6)7/h2,5H,1,4H2,(H,6,7)",BMYNFMYTOJXKLE-UHFFFAOYSA-N,NCC(O)C(O)=O,-0.8229
1210,B-1211,2-bromo-3-methyl-butanoic acid,"InChI=1S/C5H9BrO2/c1-3(2)4(6)5(7)8/h3-4H,1-2H3,(H,7,8)",UEBARDWJXBGYEJ-UHFFFAOYSA-N,CC(C)C(Br)C(O)=O,-1.103
1211,B-1212,"2,3,4-trimethylpentane","InChI=1S/C8H18/c1-6(2)8(5)7(3)4/h6-8H,1-5H3",RLPGDEORIPLBNF-UHFFFAOYSA-N,CC(C)C(C)C(C)C,-4.6961
1212,B-1213,"2,4-dimethyl-3-pentanone","InChI=1S/C7H14O/c1-5(2)7(8)6(3)4/h5-6H,1-4H3",HXVNBWAKAOHACI-UHFFFAOYSA-N,CC(C)C(=O)C(C)C,-1.3018
1213,B-1214,"butanoic acid, 3-amino-2-hydroxy-","InChI=1S/C4H9NO3/c1-2(5)3(6)4(7)8/h2-3,6H,5H2,1H3,(H,7,8)",QTRAXZHIRXYYPP-UHFFFAOYSA-N,CC(N)C(O)C(O)=O,-0.3535
1214,B-1215,alpha-peltatin,"InChI=1S/C21H20O8/c1-25-13-4-9(5-14(26-2)19(13)23)16-11-6-15-20(29-8-28-15)18(22)12(11)3-10-7-27-21(24)17(10)16/h4-6,10,16-17,22-23H,3,7-8H2,1-2H3/t10-,16+,17-/m0/s1",JGGWNGRBXJWAOC-HKJPBSJPSA-N,COc1cc(cc(OC)c1O)[C@H]2[C@@H]3[C@H](COC3=O)Cc4c(O)c5OCOc5cc24,-4.1254
1215,B-1216,meconin,"InChI=1S/C10H10O4/c1-12-7-4-3-6-5-14-10(11)8(6)9(7)13-2/h3-4H,5H2,1-2H3",ORFFGRQMMWVHIB-UHFFFAOYSA-N,COc1ccc2COC(=O)c2c1OC,-1.8903
1216,B-1217,"1h-imidazole-4,5-dicarboxylic acid","InChI=1S/C5H4N2O4/c8-4(9)2-3(5(10)11)7-1-6-2/h1H,(H,6,7)(H,8,9)(H,10,11)",ZEVWQFWTGHFIDH-UHFFFAOYSA-N,OC(=O)c1[nH]cnc1C(O)=O,-2.4944
1217,B-1218,inositol monophosphate,"InChI=1S/C6H13O9P/c7-1-2(8)4(10)6(5(11)3(1)9)15-16(12,13)14/h1-11H,(H2,12,13,14)",INAPMGSXUVUWAF-UHFFFAOYSA-N,OC1C(O)C(O)C(O[P](O)(O)=O)C(O)C1O,0.1076
1218,B-1219,"benzoic acid, 2-hydroxy-, methoxymethyl ester","InChI=1S/C9H10O4/c1-12-6-13-9(11)7-4-2-3-5-8(7)10/h2-5,10H,6H2,1H3",NTIBMIIYTKPBNR-UHFFFAOYSA-N,COCOC(=O)c1ccccc1O,-2.3