,ID,Name,InChI,InChIKey,SMILES,Solubility
4939,C-290,"spiro-5,5-undecamethylenebarbituric acid","InChI=1S/C15H24N2O3/c18-12-15(13(19)17-14(20)16-12)10-8-6-4-2-1-3-5-7-9-11-15/h1-11H2,(H2,16,17,18,19,20)",HALJZHTVEIOBKZ-UHFFFAOYSA-N,O=C1NC(=O)C2(CCCCCCCCCCC2)C(=O)N1,-5.8
4940,C-291,4-chlorophenoxyacetic acid,"InChI=1S/C8H7ClO3/c9-6-1-3-7(4-2-6)12-5-8(10)11/h1-4H,5H2,(H,10,11)",SODPIMGUZLOIPE-UHFFFAOYSA-N,OC(=O)COC1=CC=C(Cl)C=C1,-2.34
4941,C-292,phthalamide,"InChI=1S/C8H8N2O2/c9-7(11)5-3-1-2-4-6(5)8(10)12/h1-4H,(H2,9,11)(H2,10,12)",NAYYNDKKHOIIOD-UHFFFAOYSA-N,NC(=O)C1=CC=CC=C1C(N)=O,-2.92
4942,C-293,prostaglandin e2;  dinoprostone,"InChI=1S/C20H32O5/c1-2-3-6-9-15(21)12-13-17-16(18(22)14-19(17)23)10-7-4-5-8-11-20(24)25/h4,7,12-13,15-17,19,21,23H,2-3,5-6,8-11,14H2,1H3,(H,24,25)/b7-4+,13-12+",XEYBRNLFEZDVAW-RTYMFESYSA-N,CCCCCC(O)/C=C/C1C(O)CC(=O)C1C\C=C\CCCC(O)=O,-2.47
4943,C-294,"3,4-dichlorobenzoic  acid","InChI=1S/C7H4Cl2O2/c8-5-2-1-4(7(10)11)3-6(5)9/h1-3H,(H,10,11)",VPHHJAOJUJHJKD-UHFFFAOYSA-N,OC(=O)C1=CC(=C(Cl)C=C1)Cl,-3.54
4944,C-295,butylparaben;  butyl  4-hydroxybenzoate,"InChI=1S/C11H14O3/c1-2-3-8-14-11(13)9-4-6-10(12)7-5-9/h4-7,12H,2-3,8H2,1H3",QFOHBWFCKVYLES-UHFFFAOYSA-N,CCCCOC(=O)C1=CC=C(O)C=C1,-3.13
4945,C-296,"isophthalic  acid;  benzene-1,3-dicarboxylic acid","InChI=1S/C8H6O4/c9-7(10)5-2-1-3-6(4-5)8(11)12/h1-4H,(H,9,10)(H,11,12)",QQVIHTHCMHWDBS-UHFFFAOYSA-N,OC(=O)C1=CC(=CC=C1)C(O)=O,-3.22
4946,C-297,"2,4-dichlorobenzoic  acid","InChI=1S/C7H4Cl2O2/c8-4-1-2-5(7(10)11)6(9)3-4/h1-3H,(H,10,11)",ATCRIUVQKHMXSH-UHFFFAOYSA-N,OC(=O)C1=C(Cl)C=C(Cl)C=C1,-2.6
4947,C-298,3-chlorophenoxyacetic acid,"InChI=1S/C8H7ClO3/c9-6-2-1-3-7(4-6)12-5-8(10)11/h1-4H,5H2,(H,10,11)",XSBUXVWJQVTYLC-UHFFFAOYSA-N,OC(=O)COC1=CC(=CC=C1)Cl,-1.9
4948,C-299,4-nitrobenzoic acid,"InChI=1S/C7H5NO4/c9-7(10)5-1-3-6(4-2-5)8(11)12/h1-4H,(H,9,10)",OTLNPYWUJOZPPA-UHFFFAOYSA-N,OC(=O)C1=CC=C(C=C1)[N+]([O-])=O,-2.84
4949,C-300,aldrin,"InChI=1S/C12H8Cl6/c13-8-9(14)11(16)7-5-2-1-4(3-5)6(7)10(8,15)12(11,17)18/h1-2,4-7H,3H2",QBYJBZPUGVGKQQ-UHFFFAOYSA-N,ClC1=C(Cl)C2(Cl)C3C4CC(C=C4)C3C1(Cl)C2(Cl)Cl,-6.31
4950,C-301,2-chlorophenoxyacetic  acid,"InChI=1S/C8H7ClO3/c9-6-3-1-2-4-7(6)12-5-8(10)11/h1-4H,5H2,(H,10,11)",OPQYFNRLWBWCST-UHFFFAOYSA-N,OC(=O)COC1=C(Cl)C=CC=C1,-2.16
4951,C-302,"androstenedione;  androst-4-ene-3,17-dione","InChI=1S/C19H26O2/c1-18-9-7-13(20)11-12(18)3-4-14-15-5-6-17(21)19(15,2)10-8-16(14)18/h11,14-16H,3-10H2,1-2H3",AEMFNILZOJDQLW-UHFFFAOYSA-N,CC12CCC3C(CCC4=CC(=O)CCC34C)C1CCC2=O,-3.7
4952,C-303,5-ethyl-5-(2-ethyl-1-cyclohexyliden-1-yl)barbituric  acid,"InChI=1S/C14H20N2O3/c1-3-9-7-5-6-8-10(9)14(4-2)11(17)15-13(19)16-12(14)18/h3-8H2,1-2H3,(H2,15,16,17,18,19)",AVOQDBLSHMVAMW-UHFFFAOYSA-N,CCC1=C(CCCC1)C2(CC)C(=O)NC(=O)NC2=O,-3.53
4953,C-304,Norgestrel,"InChI=1S/C21H28O2/c1-3-20-11-9-17-16-8-6-15(22)13-14(16)5-7-18(17)19(20)10-12-21(20,23)4-2/h2,13,16-19,23H,3,5-12H2,1H3",WWYNJERNGUHSAO-UHFFFAOYSA-N,CCC12CCC3C(CCC4=CC(=O)CCC34)C1CCC2(O)C#C,-5.19
4954,C-305,phthalic  acid,"InChI=1S/C8H6O4/c9-7(10)5-3-1-2-4-6(5)8(11)12/h1-4H,(H,9,10)(H,11,12)",XNGIFLGASWRNHJ-UHFFFAOYSA-N,OC(=O)C1=CC=CC=C1C(O)=O,-1.07
4955,C-306,3-nitrobenzoic acid,"InChI=1S/C7H5NO4/c9-7(10)5-2-1-3-6(4-5)8(11)12/h1-4H,(H,9,10)",AFPHTEQTJZKQAQ-UHFFFAOYSA-N,OC(=O)C1=CC(=CC=C1)[N+]([O-])=O,-1.76
4956,C-307,pteridine,InChI=1S/C6H4N4/c1-2-9-6-5(8-1)3-7-4-10-6/h1-4H,CPNGPNLZQNNVQM-UHFFFAOYSA-N,C1=NC2=C(N=C1)N=CN=C2,0.02
4957,C-308,tetramethrin; phthaltrin,"InChI=1S/C19H25NO4/c1-11(2)9-14-15(19(14,3)4)18(23)24-10-20-16(21)12-7-5-6-8-13(12)17(20)22/h9,14-15H,5-8,10H2,1-4H3",CXBMCYHAMVGWJQ-UHFFFAOYSA-N,CC(C)=CC1C(C(=O)OCN2C(=O)C3=C(CCCC3)C2=O)C1(C)C,-5.26
4958,C-309,2-methylnaphthalene,"InChI=1S/C11H10/c1-9-6-7-10-4-2-3-5-11(10)8-9/h2-8H,1H3",QIMMUPPBPVKWKM-UHFFFAOYSA-N,CC1=CC2=C(C=CC=C2)C=C1,-3.76
4959,C-310,hippuric  acid;  n-benzoylglycine,"InChI=1S/C9H9NO3/c11-8(12)6-10-9(13)7-4-2-1-3-5-7/h1-5H,6H2,(H,10,13)(H,11,12)",QIAFMBKCNZACKA-UHFFFAOYSA-N,OC(=O)CNC(=O)C1=CC=CC=C1,-1.69
4960,C-311,"2,5-dichloronitrobenzene",InChI=1S/C6H3Cl2NO2/c7-4-1-2-5(8)6(3-4)9(10)11/h1-3H,RZKKOBGFCAHLCZ-UHFFFAOYSA-N,[O-][N+](=O)C1=C(Cl)C=CC(=C1)Cl,-3.32
4961,C-312,"1,4-dinitrobenzene",InChI=1S/C6H4N2O4/c9-7(10)5-1-2-6(4-3-5)8(11)12/h1-4H,FYFDQJRXFWGIBS-UHFFFAOYSA-N,[O-][N+](=O)C1=CC=C(C=C1)[N+]([O-])=O,-3.39
4962,C-313,adenine;  6-aminopurine,"InChI=1S/C5H5N5/c6-4-3-5(9-1-7-3)10-2-8-4/h1-2H,(H3,6,7,8,9,10)",GFFGJBXGBJISGV-UHFFFAOYSA-N,NC1=NC=NC2=C1N=C[NH]2,-2.26
4963,C-314,"monuron;  3-(4-chlorophenyl)-1,1-dimethylurea;  telvar","InChI=1S/C9H11ClN2O/c1-12(2)9(13)11-8-5-3-7(10)4-6-8/h3-6H,1-2H3,(H,11,13)",BMLIZLVNXIYGCK-UHFFFAOYSA-N,CN(C)C(=O)NC1=CC=C(Cl)C=C1,-2.89
4964,C-315,reposal,"InChI=1S/C14H18N2O3/c1-2-14(11(17)15-13(19)16-12(14)18)10-6-8-3-4-9(5-8)7-10/h6,8-9H,2-5,7H2,1H3,(H2,15,16,17,18,19)",MKELYWOVSPVORM-UHFFFAOYSA-N,CCC1(C(=O)NC(=O)NC1=O)C2=CC3CCC(C3)C2,-2.78
4965,C-316,"3,6-dichloropicolinic acid; clopyralid","InChI=1S/C6H3Cl2NO2/c7-3-1-2-4(8)9-5(3)6(10)11/h1-2H,(H,10,11)",HUBANNPOLNYSAD-UHFFFAOYSA-N,OC(=O)C1=NC(=CC=C1Cl)Cl,-2.28
4966,C-317,4-bromoacetanilide,"InChI=1S/C8H8BrNO/c1-6(11)10-8-4-2-7(9)3-5-8/h2-5H,1H3,(H,10,11)",MSLICLMCQYQNPK-UHFFFAOYSA-N,CC(=O)NC1=CC=C(Br)C=C1,-3.25
4967,C-318,ethisterone,"InChI=1S/C21H28O2/c1-4-21(23)12-9-18-16-6-5-14-13-15(22)7-10-19(14,2)17(16)8-11-20(18,21)3/h1,13,16-18,23H,5-12H2,2-3H3",CHNXZKVNWQUJIB-UHFFFAOYSA-N,CC12CCC(=O)C=C1CCC3C2CCC4(C)C3CCC4(O)C#C,-5.72
4968,C-319,2-nitrobenzoic acid,"InChI=1S/C7H5NO4/c9-7(10)5-3-1-2-4-6(5)8(11)12/h1-4H,(H,9,10)",SLAMLWHELXOEJZ-UHFFFAOYSA-N,OC(=O)C1=C(C=CC=C1)[N+]([O-])=O,-1.35
4969,C-320,allopurinol (keto-form),"InChI=1S/C5H4N4O/c10-5-3-1-8-9-4(3)6-2-7-5/h1-2H,(H2,6,7,8,9,10)",OFCNXPDARWKPPY-UHFFFAOYSA-N,O=C1NC=NC2=C1C=N[NH]2,-2.45
4970,C-321,"1,3-dinitrobenzene",InChI=1S/C6H4N2O4/c9-7(10)5-2-1-3-6(4-5)8(11)12/h1-4H,WDCYWAQPCXBPJA-UHFFFAOYSA-N,[O-][N+](=O)C1=CC(=CC=C1)[N+]([O-])=O,-2.5
4971,C-322,4-isothiocyanatobenzoic acid,"InChI=1S/C8H5NO2S/c10-8(11)6-1-3-7(4-2-6)9-5-12/h1-4H,(H,10,11)",RBEFRYQKJYMLCC-UHFFFAOYSA-N,OC(=O)C1=CC=C(C=C1)N=C=S,-3.98
4972,C-323,hypoxanthine,"InChI=1S/C5H4N4O/c10-5-3-4(7-1-6-3)8-2-9-5/h1-2H,(H2,6,7,8,9,10)",FDGQSTZJBFJUBT-UHFFFAOYSA-N,O=C1NC=NC2=C1N=C[NH]2,-2.28
4973,C-324,"3,4-pyridinedicarboxylic  acid;  cinchomeronic  acid","InChI=1S/C7H5NO4/c9-6(10)4-1-2-8-3-5(4)7(11)12/h1-3H,(H,9,10)(H,11,12)",MUYSADWCWFFZKR-UHFFFAOYSA-N,OC(=O)C1=C(C=NC=C1)C(O)=O,-1.86
4974,C-325,nitrapyrin;  2-chloro-6-trichloromethylpyridine,"InChI=1S/C6H3Cl4N/c7-5-3-1-2-4(11-5)6(8,9)10/h1-3H",DCUJJWWUNKIJPH-UHFFFAOYSA-N,ClC1=CC=CC(=N1)C(Cl)(Cl)Cl,-3.4
4975,C-326,l-tyrosine,"InChI=1S/C9H11NO3/c10-8(9(12)13)5-6-1-3-7(11)4-2-6/h1-4,8,11H,5,10H2,(H,12,13)",OUYCCCASQSFEME-UHFFFAOYSA-N,NC(CC1=CC=C(O)C=C1)C(O)=O,-2.54
4976,C-327,baclofen;  4-amino-3-(4-chlorophenyl)butanoic acid,"InChI=1S/C10H12ClNO2/c11-9-3-1-7(2-4-9)8(6-12)5-10(13)14/h1-4,8H,5-6,12H2,(H,13,14)",KPYSYYIEGFHWSV-UHFFFAOYSA-N,NCC(CC(O)=O)C1=CC=C(Cl)C=C1,-1.7
4977,C-328,3-isothiocyanatobenzoic acid,"InChI=1S/C8H5NO2S/c10-8(11)6-2-1-3-7(4-6)9-5-12/h1-4H,(H,10,11)",PJRBPKOOGLKPFB-UHFFFAOYSA-N,OC(=O)C1=CC(=CC=C1)N=C=S,-3.25
4978,C-329,"simazine;  2-chloro-4,6-di(ethylamino)-1,3,5-triazine","InChI=1S/C7H12ClN5/c1-3-9-6-11-5(8)12-7(13-6)10-4-2/h3-4H2,1-2H3,(H2,9,10,11,12,13)",ODCWYMIRDDJXKW-UHFFFAOYSA-N,CCNC1=NC(=NC(=N1)Cl)NCC,-4.55
4979,C-330,"1,2-dinitrobenzene",InChI=1S/C6H4N2O4/c9-7(10)5-3-1-2-4-6(5)8(11)12/h1-4H,IZUKQUVSCNEFMJ-UHFFFAOYSA-N,[O-][N+](=O)C1=C(C=CC=C1)[N+]([O-])=O,-3.1
4980,C-331,butallylonal;  5-(2-bromoallyl)-5-sec-butylbarbituric  acid,"InChI=1S/C11H15BrN2O3/c1-4-6(2)11(5-7(3)12)8(15)13-10(17)14-9(11)16/h6H,3-5H2,1-2H3,(H2,13,14,15,16,17)",FWZMBTIUIQUJFF-UHFFFAOYSA-N,CCC(C)C1(CC(Br)=C)C(=O)NC(=O)NC1=O,-2.65
4981,C-332,"2,4-dibromophenol","InChI=1S/C6H4Br2O/c7-4-1-2-6(9)5(8)3-4/h1-3,9H",FAXWFCTVSHEODL-UHFFFAOYSA-N,OC1=C(Br)C=C(Br)C=C1,-2.08
4982,C-333,2-aminonaphthalene;  2-naphthylamine,"InChI=1S/C10H9N/c11-10-6-5-8-3-1-2-4-9(8)7-10/h1-7H,11H2",JBIJLHTVPXGSAM-UHFFFAOYSA-N,NC1=CC2=C(C=CC=C2)C=C1,-2.88
4983,C-334,4-[3-(adamantan-1-yl)ureido]butanoic acid pentyl ester;  pentyl  4-[3'-(adamantan-1''-yl)ureido]butanoate,"InChI=1S/C20H34N2O3/c1-2-3-4-8-25-18(23)6-5-7-21-19(24)22-20-12-15-9-16(13-20)11-17(10-15)14-20/h15-17H,2-14H2,1H3,(H2,21,22,24)",NQJCTWSXXZBQGX-UHFFFAOYSA-N,CCCCCOC(=O)CCCNC(=O)N[C]12C[CH]3[CH2]C([CH2][CH](C3)C1)C2,-2.32
4984,C-335,chlorofos;  metrifonate;  trichlorfon,"InChI=1S/C4H8Cl3O4P/c1-10-12(9,11-2)3(8)4(5,6)7/h3,8H,1-2H3",NFACJZMKEDPNKN-UHFFFAOYSA-N,CO[P](=O)(OC)C(O)C(Cl)(Cl)Cl,-0.22
4985,C-336,"4,5-dichloroveratrole;  1,2-dichloro-4,5-dimethoxybenzene","InChI=1S/C8H8Cl2O2/c1-11-7-3-5(9)6(10)4-8(7)12-2/h3-4H,1-2H3",RJYXLZQZBLGBOM-UHFFFAOYSA-N,COC1=C(OC)C=C(Cl)C(=C1)Cl,-3.46
4986,C-337,heptachlor  epoxide,"InChI=1S/C10H5Cl7O/c11-3-1-2(4-5(3)18-4)9(15)7(13)6(12)8(1,14)10(9,16)17/h1-5H",ZXFXBSWRVIQKOD-UHFFFAOYSA-N,ClC1C2OC2C3C1C4(Cl)C(=C(Cl)C3(Cl)C4(Cl)Cl)Cl,-6.34
4987,C-338,1-aminonaphthalene;  1-naphthylamine,"InChI=1S/C10H9N/c11-10-7-3-5-8-4-1-2-6-9(8)10/h1-7H,11H2",RUFPHBVGCFYCNW-UHFFFAOYSA-N,NC1=CC=CC2=C1C=CC=C2,-1.92
4988,C-339,(+)-ibuprofen,"InChI=1S/C13H18O2/c1-9(2)8-11-4-6-12(7-5-11)10(3)13(14)15/h4-7,9-10H,8H2,1-3H3,(H,14,15)",HEFNNWSXXWATRW-UHFFFAOYSA-N,CC(C)CC1=CC=C(C=C1)C(C)C(O)=O,-3.46
4989,C-340,2-naphthol;  2-hydroxynaphthalene,"InChI=1S/C10H8O/c11-10-6-5-8-3-1-2-4-9(8)7-10/h1-7,11H",JWAZRIHNYRIHIV-UHFFFAOYSA-N,OC1=CC2=C(C=CC=C2)C=C1,-2.28
4990,C-341,chlordane,"InChI=1S/C10H6Cl8/c11-3-1-2-4(5(3)12)9(16)7(14)6(13)8(2,15)10(9,17)18/h2-5H,1H2",BIWJNBZANLAXMG-UHFFFAOYSA-N,ClC1CC2C(C1Cl)C3(Cl)C(=C(Cl)C2(Cl)C3(Cl)Cl)Cl,-5.35
4991,C-342,"isoproturon;  1-(4-isopropyl)phenyl-3,3-dimethylurea","InChI=1S/C12H18N2O/c1-9(2)10-5-7-11(8-6-10)13-12(15)14(3)4/h5-9H,1-4H3,(H,13,15)",PUIYMUZLKQOUOZ-UHFFFAOYSA-N,CC(C)C1=CC=C(NC(=O)N(C)C)C=C1,-3.47
4992,C-343,ascorbic  acid;  vitamin c,"InChI=1S/C6H8O6/c7-1-2(8)5-3(9)4(10)6(11)12-5/h2,5,7-10H,1H2",CIWBSHSKHKDKBQ-UHFFFAOYSA-N,OCC(O)C1OC(=O)C(=C1O)O,0.28
4993,C-344,4-nitroacetanilide,"InChI=1S/C8H8N2O3/c1-6(11)9-7-2-4-8(5-3-7)10(12)13/h2-5H,1H3,(H,9,11)",NQRLPDFELNCFHW-UHFFFAOYSA-N,CC(=O)NC1=CC=C(C=C1)[N+]([O-])=O,-3.11
4994,C-345,1-naphthol;  1-hydroxynaphthalene,"InChI=1S/C10H8O/c11-10-7-3-5-8-4-1-2-6-9(8)10/h1-7,11H",KJCVRFUGPWSIIH-UHFFFAOYSA-N,OC1=CC=CC2=C1C=CC=C2,-2.22
4995,C-346,endrin,"InChI=1S/C12H8Cl6O/c13-8-9(14)11(16)5-3-1-2(6-7(3)19-6)4(5)10(8,15)12(11,17)18/h2-7H,1H2",DFBKLUNHFCTMDC-UHFFFAOYSA-N,ClC1=C(Cl)C2(Cl)C3C4CC(C5OC45)C3C1(Cl)C2(Cl)Cl,-6.29
4996,C-347,(4-chloro-2-methylphenoxy)acetic acid;  2-methyl-4-chlorophenoxyacetic acid;  mcpa,"InChI=1S/C9H9ClO3/c1-6-4-7(10)2-3-8(6)13-5-9(11)12/h2-4H,5H2,1H3,(H,11,12)",WHKUVVPPKQRRBV-UHFFFAOYSA-N,CC1=C(OCC(O)=O)C=CC(=C1)Cl,-2.23
4997,C-348,"isouron;  3-(5-tert-butylisoxazol-3-yl)-1,1-dimethylurea","InChI=1S/C10H17N3O2/c1-10(2,3)7-6-8(12-15-7)11-9(14)13(4)5/h6H,1-5H3,(H,11,12,14)",JLLJHQLUZAKJFH-UHFFFAOYSA-N,CN(C)C(=O)NC1=NOC(=C1)C(C)(C)C,-2.43
4998,C-349,chlorpropham; chloropropham; isopropyl  n-(3-chlorophenyl)carbamate,"InChI=1S/C10H12ClNO2/c1-7(2)14-10(13)12-9-5-3-4-8(11)6-9/h3-7H,1-2H3,(H,12,13)",CWJSHJJYOPWUGX-UHFFFAOYSA-N,CC(C)OC(=O)NC1=CC=CC(=C1)Cl,-3.38
4999,C-350,alprenolol,"InChI=1S/C15H23NO2/c1-4-7-13-8-5-6-9-15(13)18-11-14(17)10-16-12(2)3/h4-6,8-9,12,14,16-17H,1,7,10-11H2,2-3H3",PAZJSJFMUHDSTF-UHFFFAOYSA-N,CC(C)NCC(O)COC1=C(CC=C)C=CC=C1,-2.63
5000,C-351,4-nitrophenyl  acetate,"InChI=1S/C8H7NO4/c1-6(10)13-8-4-2-7(3-5-8)9(11)12/h2-5H,1H3",QAUUDNIGJSLPSX-UHFFFAOYSA-N,CC(=O)OC1=CC=C(C=C1)[N+]([O-])=O,-2.54
5001,C-352,propachlor;   2-chloro-n-isopropyl-n-phenyl-acetamide,"InChI=1S/C11H14ClNO/c1-9(2)13(11(14)8-12)10-6-4-3-5-7-10/h3-7,9H,8H2,1-2H3",MFOUDYKPLGXPGO-UHFFFAOYSA-N,CC(C)N(C(=O)CCl)C1=CC=CC=C1,-1.96
5002,C-353,4-iodobenzoic  acid,"InChI=1S/C7H5IO2/c8-6-3-1-5(2-4-6)7(9)10/h1-4H,(H,9,10)",GHICCUXQJBDNRN-UHFFFAOYSA-N,OC(=O)C1=CC=C(I)C=C1,-4.04
5003,C-354,8-hydroxyquinoline;  8-quinolinol,"InChI=1S/C9H7NO/c11-8-5-1-3-7-4-2-6-10-9(7)8/h1-6,11H",MCJGNVYPOGVAJF-UHFFFAOYSA-N,OC1=CC=CC2=C1N=CC=C2,-2.32
5004,C-355,acetylsalicylic  acid;  2-acetoxybenzoic  acid;  aspirin,"InChI=1S/C9H8O4/c1-6(10)13-8-5-3-2-4-7(8)9(11)12/h2-5H,1H3,(H,11,12)",BSYNRYMUTXBXSQ-UHFFFAOYSA-N,CC(=O)OC1=C(C=CC=C1)C(O)=O,-1.73
5005,C-356,2-(4-chlorophenoxy)propanoic acid,"InChI=1S/C9H9ClO3/c1-6(9(11)12)13-8-4-2-7(10)3-5-8/h2-6H,1H3,(H,11,12)",DKHJWWRYTONYHB-UHFFFAOYSA-N,CC(OC1=CC=C(Cl)C=C1)C(O)=O,-2.13
5006,C-357,2-nitroacetanilide,"InChI=1S/C8H8N2O3/c1-6(11)9-7-4-2-3-5-8(7)10(12)13/h2-5H,1H3,(H,9,11)",BUNFNRVLMKHKIT-UHFFFAOYSA-N,CC(=O)NC1=CC=CC=C1[N+]([O-])=O,-1.91
5007,C-358,"2,6-dimethylnaphthalene","InChI=1S/C12H12/c1-9-3-5-12-8-10(2)4-6-11(12)7-9/h3-8H,1-2H3",YGYNBBAUIYTWBF-UHFFFAOYSA-N,CC1=CC2=C(C=C1)C=C(C)C=C2,-5.08
5008,C-359,5-bromosalicylic acid,"InChI=1S/C7H5BrO3/c8-4-1-2-6(9)5(3-4)7(10)11/h1-3,9H,(H,10,11)",IEJOONSLOGAXNO-UHFFFAOYSA-N,OC(=O)C1=C(O)C=CC(=C1)Br,-2.65
5009,C-360,"2,3-dimethylnaphthalene","InChI=1S/C12H12/c1-9-7-11-5-3-4-6-12(11)8-10(9)2/h3-8H,1-2H3",WWGUMAYGTYQSGA-UHFFFAOYSA-N,CC1=CC2=C(C=CC=C2)C=C1C,-4.9
5010,C-361,"atrazine;  2-chloro-4-ethylamino-6-isopropylamino-1,3,5-triazine","InChI=1S/C8H14ClN5/c1-4-10-7-12-6(9)13-8(14-7)11-5(2)3/h5H,4H2,1-3H3,(H2,10,11,12,13,14)",MXWJVTOOROXGIU-UHFFFAOYSA-N,CCNC1=NC(=NC(=N1)Cl)NC(C)C,-3.49
5011,C-362,promecarb,"InChI=1S/C12H17NO2/c1-8(2)10-5-9(3)6-11(7-10)15-12(14)13-4/h5-8H,1-4H3,(H,13,14)",DTAPQAJKAFRNJB-UHFFFAOYSA-N,CNC(=O)OC1=CC(=CC(=C1)C)C(C)C,-3.36
5012,C-363,3-iodobenzoic acid,"InChI=1S/C7H5IO2/c8-6-3-1-2-5(4-6)7(9)10/h1-4H,(H,9,10)",KVBWBCRPWVKFQT-UHFFFAOYSA-N,OC(=O)C1=CC(=CC=C1)I,-3.56
5013,C-364,phthalimide,"InChI=1S/C8H5NO2/c10-7-5-3-1-2-4-6(5)8(11)9-7/h1-4H,(H,9,10,11)",XKJCHHZQLQNZHY-UHFFFAOYSA-N,O=C1NC(=O)C2=CC=CC=C12,-3.61
5014,C-365,coumarin,InChI=1S/C9H6O2/c10-9-6-5-7-3-1-2-4-8(7)11-9/h1-6H,ZYGHJZDHTFUPRJ-UHFFFAOYSA-N,O=C1OC2=C(C=CC=C2)C=C1,-3.16
5015,C-366,"4-(4-chloro-2-methylphenoxy)butanoic acid;  2,4-mcpb","InChI=1S/C11H13ClO3/c1-8-7-9(12)4-5-10(8)15-6-2-3-11(13)14/h4-5,7H,2-3,6H2,1H3,(H,13,14)",LLWADFLAOKUBDR-UHFFFAOYSA-N,CC1=C(OCCCC(O)=O)C=CC(=C1)Cl,-3.68
5016,C-367,sulfanilamide,"InChI=1S/C6H8N2O2S/c7-5-1-3-6(4-2-5)11(8,9)10/h1-4H,7H2,(H2,8,9,10)",FDDDEECHVMSUSB-UHFFFAOYSA-N,NC1=CC=C(C=C1)[S](N)(=O)=O,-1.37
5017,C-368,"2,3,4,6-tetrachlorophenol","InChI=1S/C6H2Cl4O/c7-2-1-3(8)6(11)5(10)4(2)9/h1,11H",VGVRPFIJEJYOFN-UHFFFAOYSA-N,OC1=C(Cl)C(=C(Cl)C=C1Cl)Cl,-4.0
5018,C-369,"propanil;  n-(3,4-dichlorophenyl)propionamide","InChI=1S/C9H9Cl2NO/c1-2-9(13)12-6-3-4-7(10)8(11)5-6/h3-5H,2H2,1H3,(H,12,13)",LFULEKSKNZEWOE-UHFFFAOYSA-N,CCC(=O)NC1=CC(=C(Cl)C=C1)Cl,-3.16
5019,C-370,1-naphthalenemethanol;  1-hydroxymethylnaphthalene,"InChI=1S/C11H10O/c12-8-10-6-3-5-9-4-1-2-7-11(9)10/h1-7,12H,8H2",PBLNHHSDYFYZNC-UHFFFAOYSA-N,OCC1=CC=CC2=C1C=CC=C2,-1.74
5020,C-371,2-chloronaphthalene,InChI=1S/C10H7Cl/c11-10-6-5-8-3-1-2-4-9(8)7-10/h1-7H,CGYGETOMCSJHJU-UHFFFAOYSA-N,ClC1=CC2=C(C=CC=C2)C=C1,-5.25
5021,C-372,"2,4-dinitrotoluene","InChI=1S/C7H6N2O4/c1-5-2-3-6(8(10)11)4-7(5)9(12)13/h2-4H,1H3",RMBFBMJGBANMMK-UHFFFAOYSA-N,CC1=C(C=C(C=C1)[N+]([O-])=O)[N+]([O-])=O,-2.82
5022,C-373,"1,5-dimethylnaphthalene","InChI=1S/C12H12/c1-9-5-3-8-12-10(2)6-4-7-11(9)12/h3-8H,1-2H3",SDDBCEWUYXVGCQ-UHFFFAOYSA-N,CC1=CC=CC2=C1C=CC=C2C,-4.75
5023,C-374,dimethyl terephthalate,"InChI=1S/C10H10O4/c1-13-9(11)7-3-5-8(6-4-7)10(12)14-2/h3-6H,1-2H3",WOZVHXUHUFLZGK-UHFFFAOYSA-N,COC(=O)C1=CC=C(C=C1)C(=O)OC,-4.01
5024,C-375,dimethirimol,"InChI=1S/C11H19N3O/c1-5-6-7-9-8(2)12-11(14(3)4)13-10(9)15/h5-7H2,1-4H3,(H,12,13,15)",CJHXCRMKMMBYJQ-UHFFFAOYSA-N,CCCCC1=C(C)N=C(NC1=O)N(C)C,-2.24
5025,C-376,biphenyl;  diphenyl,InChI=1S/C12H10/c1-3-7-11(8-4-1)12-9-5-2-6-10-12/h1-10H,ZUOUZKKEUPVFJK-UHFFFAOYSA-N,C1=CC=C(C=C1)C2=CC=CC=C2,-4.32
5026,C-377,sulfanilic acid,"InChI=1S/C6H7NO3S/c7-5-1-3-6(4-2-5)11(8,9)10/h1-4H,7H2,(H,8,9,10)",HVBSAKJJOYLTQU-UHFFFAOYSA-N,NC1=CC=C(C=C1)[S](O)(=O)=O,-1.12
5027,C-378,2-iodobenzoic acid,"InChI=1S/C7H5IO2/c8-6-4-2-1-3-5(6)7(9)10/h1-4H,(H,9,10)",CJNZAXGUTKBIHP-UHFFFAOYSA-N,OC(=O)C1=CC=CC=C1I,-2.42
5028,C-379,siduron; 1-(2-methylcyclohexyl)-3-phenylurea;  n-(2-methylcyclohexyl)-n'-phenylurea,"InChI=1S/C14H20N2O/c1-11-7-5-6-10-13(11)16-14(17)15-12-8-3-2-4-9-12/h2-4,8-9,11,13H,5-7,10H2,1H3,(H2,15,16,17)",JXVIIQLNUPXOII-UHFFFAOYSA-N,CC1CCCCC1NC(=O)NC2=CC=CC=C2,-4.11
5029,C-380,procaine,"InChI=1S/C13H20N2O2/c1-3-15(4-2)9-10-17-13(16)11-5-7-12(14)8-6-11/h5-8H,3-4,9-10,14H2,1-2H3",MFDFERRIHVXMIY-UHFFFAOYSA-N,CCN(CC)CCOC(=O)C1=CC=C(N)C=C1,-2.08
5030,C-381,phthalic  anhydride;  phthalic acid anhydride,InChI=1S/C8H4O3/c9-7-5-3-1-2-4-6(5)8(10)11-7/h1-4H,LGRFSURHDFAFJT-UHFFFAOYSA-N,O=C1OC(=O)C2=CC=CC=C12,-1.38
5031,C-382,chenodeoxycholic  acid;  chenodiol,"InChI=1S/C24H40O4/c1-14(4-7-21(27)28)17-5-6-18-22-19(9-11-24(17,18)3)23(2)10-8-16(25)12-15(23)13-20(22)26/h14-20,22,25-26H,4-13H2,1-3H3,(H,27,28)",RUDATBOHQWOJDD-UHFFFAOYSA-N,CC(CCC(O)=O)C1CCC2C3C(O)CC4CC(O)CCC4(C)C3CCC12C,-4.57
5032,C-383,4-acetoxyacetanilide,"InChI=1S/C10H11NO3/c1-7(12)11-9-3-5-10(6-4-9)14-8(2)13/h3-6H,1-2H3,(H,11,12)",UJAOSPFULOFZRR-UHFFFAOYSA-N,CC(=O)NC1=CC=C(OC(C)=O)C=C1,-1.91
5033,C-384,4-iodophenyl  isothiocyanate;  4-isothiocyanatoiodobenzene,InChI=1S/C7H4INS/c8-6-1-3-7(4-2-6)9-5-10/h1-4H,SNLGBRZZFRSXHA-UHFFFAOYSA-N,IC1=CC=C(C=C1)N=C=S,-4.05
5034,C-385,deoxycholic acid,"InChI=1S/C24H40O4/c1-14(4-9-22(27)28)18-7-8-19-17-6-5-15-12-16(25)10-11-23(15,2)20(17)13-21(26)24(18,19)3/h14-21,25-26H,4-13H2,1-3H3,(H,27,28)",KXGVEGMKQFWNSR-UHFFFAOYSA-N,CC(CCC(O)=O)C1CCC2C3CCC4CC(O)CCC4(C)C3CC(O)C12C,-4.55
5035,C-386,pentachlorobenzene,InChI=1S/C6HCl5/c7-2-1-3(8)5(10)6(11)4(2)9/h1H,CEOCDNVZRAIOQZ-UHFFFAOYSA-N,ClC1=C(Cl)C(=C(Cl)C(=C1)Cl)Cl,-6.02
5036,C-387,meperidine;  pethidine,"InChI=1S/C15H21NO2/c1-3-18-14(17)15(9-11-16(2)12-10-15)13-7-5-4-6-8-13/h4-8H,3,9-12H2,1-2H3",XADCESSVHJOZHK-UHFFFAOYSA-N,CCOC(=O)C1(CCN(C)CC1)C2=CC=CC=C2,-1.58
5037,C-388,acetamiprid,"InChI=1S/C10H11ClN4/c1-8(14-7-12)15(2)6-9-3-4-10(11)13-5-9/h3-5H,6H2,1-2H3",WCXDHFDTOYPNIE-UHFFFAOYSA-N,CN(CC1=CC=C(Cl)N=C1)C(C)=NC#N,-1.72
5038,C-389,progesterone,"InChI=1S/C21H30O2/c1-13(22)17-6-7-18-16-5-4-14-12-15(23)8-10-20(14,2)19(16)9-11-21(17,18)3/h12,16-19H,4-11H2,1-3H3",RJKFOVLPORLFTN-UHFFFAOYSA-N,CC(=O)C1CCC2C3CCC4=CC(=O)CCC4(C)C3CCC12C,-4.43
5039,C-390,alpha-endosulfan,"InChI=1S/C9H6Cl6O3S/c10-5-6(11)8(13)4-2-18-19(16)17-1-3(4)7(5,12)9(8,14)15/h3-4H,1-2H2",RDYMFSUJUZBWLH-UHFFFAOYSA-N,ClC1=C(Cl)C2(Cl)C3CO[S](=O)OCC3C1(Cl)C2(Cl)Cl,-6.18
5040,C-391,"1,4-diiodobenzene",InChI=1S/C6H4I2/c7-5-1-2-6(8)4-3-5/h1-4H,LFMWZTSOMGDDJU-UHFFFAOYSA-N,IC1=CC=C(I)C=C1,-5.37
5041,C-392,acenaphthene,"InChI=1S/C12H10/c1-3-9-4-2-6-11-8-7-10(5-1)12(9)11/h1-6H,7-8H2",CWRYPZZKDGJXCA-UHFFFAOYSA-N,C1CC2=CC=CC3=CC=CC1=C23,-4.61
5042,C-393,nitrofurazone,"InChI=1S/C6H6N4O4/c7-6(11)9-8-3-4-1-2-5(14-4)10(12)13/h1-3H,(H3,7,9,11)/b8-3+",IAIWVQXQOWNYOU-FPYGCLRLSA-N,NC(=O)N/N=C/C1=CC=C(O1)[N+]([O-])=O,-2.98
5043,C-394,4-iodoacetanilide,"InChI=1S/C8H8INO/c1-6(11)10-8-4-2-7(9)3-5-8/h2-5H,1H3,(H,10,11)",SIULLDWIXYYVCU-UHFFFAOYSA-N,CC(=O)NC1=CC=C(I)C=C1,-3.72
5044,C-395,"4,4'-dipyridyl;  4,4'-bipyridine;  4,4'-bipyridinyl",InChI=1S/C10H8N2/c1-5-11-6-2-9(1)10-3-7-12-8-4-10/h1-8H,MWVTWFVJZLCBMC-UHFFFAOYSA-N,C1=NC=CC(=C1)C2=CC=NC=C2,-1.54
5045,C-396,"2,5-dinitrophenol","InChI=1S/C6H4N2O5/c9-6-3-4(7(10)11)1-2-5(6)8(12)13/h1-3,9H",UWEZBKLLMKVIPI-UHFFFAOYSA-N,OC1=C(C=CC(=C1)[N+]([O-])=O)[N+]([O-])=O,-2.68
5046,C-397,"3,4-dichlorophenoxyacetic acid","InChI=1S/C8H6Cl2O3/c9-6-2-1-5(3-7(6)10)13-4-8(11)12/h1-3H,4H2,(H,11,12)",SNYRXHULAWEECU-UHFFFAOYSA-N,OC(=O)COC1=CC(=C(Cl)C=C1)Cl,-2.68
5047,C-398,17alpha-hydroxyprogesterone,"InChI=1S/C21H30O3/c1-13(22)21(24)11-8-18-16-5-4-14-12-15(23)6-9-19(14,2)17(16)7-10-20(18,21)3/h12,16-18,24H,4-11H2,1-3H3",DBPWSSGDRRHUNT-UHFFFAOYSA-N,CC(=O)C1(O)CCC2C3CCC4=CC(=O)CCC4(C)C3CCC12C,-4.74
5048,C-399,"bibenzyl;  dibenzyl;  1,2-diphenylethane","InChI=1S/C14H14/c1-3-7-13(8-4-1)11-12-14-9-5-2-6-10-14/h1-10H,11-12H2",QWUWMCYKGHVNAV-UHFFFAOYSA-N,C(CC1=CC=CC=C1)C2=CC=CC=C2,-4.63