,ID,Name,InChI,InChIKey,SMILES,Solubility
4367,B-4368,chlorthiamid,"InChI=1S/C7H5Cl2NS/c8-4-2-1-3-5(9)6(4)7(10)11/h1-3H,(H2,10,11)",KGKGSIUWJCAFPX-UHFFFAOYSA-N,NC(=S)c1c(Cl)cccc1Cl,-2.3363
4368,B-4369,"thiocyanic acid, 2-oxopropyl ester","InChI=1S/C4H5NOS/c1-4(6)2-7-3-5/h2H2,1H3",HBEQAYDPEJTYND-UHFFFAOYSA-N,CC(=O)CSC#N,-0.2162
4369,B-4370,"thiocyanic acid, 1,2,3-propanetriyl ester","InChI=1S/C6H5N3S3/c7-3-10-1-6(12-5-9)2-11-4-8/h6H,1-2H2",DNFIEAXZRIFMMN-UHFFFAOYSA-N,N#CSCC(CSC#N)SC#N,-1.9351
4370,B-4371,"benzenesulfonic acid, pentabromo-","InChI=1S/C6HBr5O3S/c7-1-2(8)4(10)6(15(12,13)14)5(11)3(1)9/h(H,12,13,14)",ZMOIAEHZILNVCK-UHFFFAOYSA-N,O[S](=O)(=O)c1c(Br)c(Br)c(Br)c(Br)c1Br,-2.0061
4371,B-4372,2-dibenzofuransulfonic acid,"InChI=1S/C12H8O4S/c13-17(14,15)8-5-6-12-10(7-8)9-3-1-2-4-11(9)16-12/h1-7H,(H,13,14,15)/p-1",JANFYPHFIPGYTQ-UHFFFAOYSA-M,[O-][S](=O)(=O)c1ccc2oc3ccccc3c2c1,-0.4655
4372,B-4373,napthalene-2-sulfonic acid,"InChI=1S/C10H8O3S/c11-14(12,13)10-6-5-8-3-1-2-4-9(8)7-10/h1-7H,(H,11,12,13)",KVBGVZZKJNLNJU-UHFFFAOYSA-N,O[S](=O)(=O)c1ccc2ccccc2c1,0.5133
4373,B-4374,"benzenesulfonic acid, 2-methyl-5-nitro-","InChI=1S/C7H7NO5S/c1-5-2-3-6(8(9)10)4-7(5)14(11,12)13/h2-4H,1H3,(H,11,12,13)",ZDTXQHVBLWYPHS-UHFFFAOYSA-N,Cc1ccc(cc1[S](O)(=O)=O)[N+]([O-])=O,0.4873
4374,B-4375,carbon dioxide,InChI=1S/CO2/c2-1-3,CURLTUGMZLYLDI-UHFFFAOYSA-N,O=C=O,-1.4748
4375,B-4376,propylene carbonate,"InChI=1S/C4H6O3/c1-3-2-6-4(5)7-3/h3H,2H2,1H3",RUOJZAUFBMNUDX-UHFFFAOYSA-N,CC1COC(=O)O1,0.2341
4376,B-4377,pyributicarb,"InChI=1S/C18H22N2O2S/c1-18(2,3)13-8-6-9-14(12-13)22-17(23)20(4)15-10-7-11-16(19-15)21-5/h6-12H,1-5H3",VTRWMTJQBQJKQH-UHFFFAOYSA-N,COc1cccc(n1)N(C)C(=S)Oc2cccc(c2)C(C)(C)C,-6.013999999999999
4377,B-4378,endosulfan sulfate,"InChI=1S/C9H6Cl6O4S/c10-5-6(11)8(13)4-2-19-20(16,17)18-1-3(4)7(5,12)9(8,14)15/h3-4H,1-2H2",AAPVQEMYVNZIOO-UHFFFAOYSA-N,ClC1=C(Cl)C2(Cl)C3CO[S](=O)(=O)OCC3C1(Cl)C2(Cl)Cl,-5.945
4378,B-4379,propargite,"InChI=1S/C19H26O4S/c1-5-14-21-24(20)23-18-9-7-6-8-17(18)22-16-12-10-15(11-13-16)19(2,3)4/h1,10-13,17-18H,6-9,14H2,2-4H3",ZYHMJXZULPZUED-UHFFFAOYSA-N,CC(C)(C)c1ccc(OC2CCCCC2O[S](=O)OCC#C)cc1,-5.8457
4379,B-4380,endosulfan,"InChI=1S/C9H6Cl6O3S/c10-5-6(11)8(13)4-2-18-19(16)17-1-3(4)7(5,12)9(8,14)15/h3-4H,1-2H2",RDYMFSUJUZBWLH-UHFFFAOYSA-N,ClC1=C(Cl)C2(Cl)C3CO[S](=O)OCC3C1(Cl)C2(Cl)Cl,-6.0976
4380,B-4381,a-endosulfan,"InChI=1S/C9H6Cl6O3S/c10-5-6(11)8(13)4-2-18-19(16)17-1-3(4)7(5,12)9(8,14)15/h3-4H,1-2H2/t3-,4+,7-,8?,19?/m1/s1",RDYMFSUJUZBWLH-GDSHQCHSSA-N,ClC1=C(Cl)C2(Cl)[C@H]3CO[S](=O)OC[C@H]3[C@]1(Cl)C2(Cl)Cl,-5.9019
4381,B-4382,"1,3,2-dioxathiolane, 2-oxide",InChI=1S/C2H4O3S/c3-6-4-1-2-5-6/h1-2H2,WDXYVJKNSMILOQ-UHFFFAOYSA-N,O=[S]1OCCO1,0.2214
4382,B-4383,sulfotepp,"InChI=1S/C8H20O5P2S2/c1-5-9-14(16,10-6-2)13-15(17,11-7-3)12-8-4/h5-8H2,1-4H3",XIUROWKZWPIAIB-UHFFFAOYSA-N,CCO[P](=S)(OCC)O[P](=S)(OCC)OCC,-4.0312
4383,B-4384,3-pyridinecarbothioic acid,"InChI=1S/C6H5NOS/c8-6(9)5-2-1-3-7-4-5/h1-4H,(H,8,9)",OWDHSOUPMJJTFN-UHFFFAOYSA-N,OC(=S)c1cccnc1,-1.3801
4384,B-4385,"butanedioic acid, [(ethoxythioxomethyl)thio]-","InChI=1S/C7H10O5S2/c1-2-12-7(13)14-4(6(10)11)3-5(8)9/h4H,2-3H2,1H3,(H,8,9)(H,10,11)",CACCMDSRNBZWGQ-UHFFFAOYSA-N,CCOC(=S)SC(CC(O)=O)C(O)=O,-0.9951
4385,B-4386,"propanoic acid, 2-[(ethoxythioxomethyl)thio]-","InChI=1S/C6H10O3S2/c1-3-9-6(10)11-4(2)5(7)8/h4H,3H2,1-2H3,(H,7,8)",LWNPIVOFJQQAMH-UHFFFAOYSA-N,CCOC(=S)SC(C)C(O)=O,-1.4489
4386,B-4387,hexamethylbenzene,InChI=1S/C12H18/c1-7-8(2)10(4)12(6)11(5)9(7)3/h1-6H3,YUWFEBAXEOLKSG-UHFFFAOYSA-N,Cc1c(C)c(C)c(C)c(C)c1C,-5.8392
4387,B-4388,"1,2,4,5-tetramethylbenzene","InChI=1S/C10H14/c1-7-5-9(3)10(4)6-8(7)2/h5-6H,1-4H3",SQNZJJAZBFDUTD-UHFFFAOYSA-N,Cc1cc(C)c(C)cc1C,-4.5862
4388,B-4389,stilbene,InChI=1S/C14H12/c1-3-7-13(8-4-1)11-12-14-9-5-2-6-10-14/h1-12H/b12-11+,PJANXHGTPQOBST-VAWYXSNFSA-N,c1ccc(cc1)\C=C\c2ccccc2,-5.7935
4389,B-4390,"1,2,4,5-tetrachlorobenzene",InChI=1S/C6H2Cl4/c7-3-1-4(8)6(10)2-5(3)9/h1-2H,JHBKHLUZVFWLAG-UHFFFAOYSA-N,Clc1cc(Cl)c(Cl)cc1Cl,-5.5597
4390,B-4391,hexachlorobenzene,InChI=1S/C6Cl6/c7-1-2(8)4(10)6(12)5(11)3(1)9,CKAPSXZOOQJIBF-UHFFFAOYSA-N,Clc1c(Cl)c(Cl)c(Cl)c(Cl)c1Cl,-7.6621
4391,B-4392,"1,3,5-tribromobenzene",InChI=1S/C6H3Br3/c7-4-1-5(8)3-6(9)2-4/h1-3H,YWDUZLFWHVQCHY-UHFFFAOYSA-N,Brc1cc(Br)cc(Br)c1,-5.6004
4392,B-4393,"1,2,4,5-tetrabromobenzene",InChI=1S/C6H2Br4/c7-3-1-4(8)6(10)2-5(3)9/h1-2H,QCKHVNQHBOGZER-UHFFFAOYSA-N,Brc1cc(Br)c(Br)cc1Br,-6.9931
4393,B-4394,"3,4-dichloroaniline","InChI=1S/C6H5Cl2N/c7-5-2-1-4(9)3-6(5)8/h1-3H,9H2",SDYWXFYBZPNOFX-UHFFFAOYSA-N,Nc1ccc(Cl)c(Cl)c1,-3.2458
4394,B-4395,"2,4,6-tribromophenol","InChI=1S/C6H3Br3O/c7-3-1-4(8)6(10)5(9)2-3/h1-2,10H",BSWWXRFVMJHFBN-UHFFFAOYSA-N,Oc1c(Br)cc(Br)cc1Br,-3.6745
4395,B-4396,"2,4,6-trichloroaniline","InChI=1S/C6H4Cl3N/c7-3-1-4(8)6(10)5(9)2-3/h1-2H,10H2",NATVSFWWYVJTAZ-UHFFFAOYSA-N,Nc1c(Cl)cc(Cl)cc1Cl,-3.6912
4396,B-4397,"2,3,4,6-tetrachlorophenol","InChI=1S/C6H2Cl4O/c7-2-1-3(8)6(11)5(10)4(2)9/h1,11H",VGVRPFIJEJYOFN-UHFFFAOYSA-N,Oc1c(Cl)cc(Cl)c(Cl)c1Cl,-4.0036
4397,B-4398,fumaric acid,"InChI=1S/C4H4O4/c5-3(6)1-2-4(7)8/h1-2H,(H,5,6)(H,7,8)/b2-1+",VZCYOOQTPOCHFL-OWOJBTEDSA-N,OC(=O)\C=C\C(O)=O,-1.2196
4398,B-4399,hippuric acid,"InChI=1S/C9H9NO3/c11-8(12)6-10-9(13)7-4-2-1-3-5-7/h1-5H,6H2,(H,10,13)(H,11,12)",QIAFMBKCNZACKA-UHFFFAOYSA-N,OC(=O)CNC(=O)c1ccccc1,-1.6793
4399,B-4400,tropic acid,"InChI=1S/C9H10O3/c10-6-8(9(11)12)7-4-2-1-3-5-7/h1-5,8,10H,6H2,(H,11,12)",JACRWUWPXAESPB-UHFFFAOYSA-N,OCC(C(O)=O)c1ccccc1,-0.9305
4400,B-4401,diphenic acid,"InChI=1S/C14H10O4/c15-13(16)11-7-3-1-5-9(11)10-6-2-4-8-12(10)14(17)18/h1-8H,(H,15,16)(H,17,18)",GWZCCUDJHOGOSO-UHFFFAOYSA-N,OC(=O)c1ccccc1c2ccccc2C(O)=O,-2.2839
4401,B-4402,o-hydroxybenzyl alcohol,"InChI=1S/C7H8O2/c8-5-6-3-1-2-4-7(6)9/h1-4,8-9H,5H2",CQRYARSYNCAZFO-UHFFFAOYSA-N,OCc1ccccc1O,-0.2946
4402,B-4403,bromotrifluoromethane,"InChI=1S/CBrF3/c2-1(3,4)5",RJCQBQGAPKAMLL-UHFFFAOYSA-N,FC(F)(F)Br,-2.6678
4403,B-4404,dichlorodifluoromethane,"InChI=1S/CCl2F2/c2-1(3,4)5",PXBRQCKWGAHEHS-UHFFFAOYSA-N,FC(F)(Cl)Cl,-2.6353
4404,B-4405,chlorotrifluoromethane,"InChI=1S/CClF3/c2-1(3,4)5",AFYPFACVUDMOHA-UHFFFAOYSA-N,FC(F)(F)Cl,-3.0647
4405,B-4406,1-bromooctane,"InChI=1S/C8H17Br/c1-2-3-4-5-6-7-8-9/h2-8H2,1H3",VMKOFRJSULQZRM-UHFFFAOYSA-N,CCCCCCCCBr,-5.0631
4406,B-4407,halothane,"InChI=1S/C2HBrClF3/c3-1(4)2(5,6)7/h1H",BCQZXOMGPXTTIC-UHFFFAOYSA-N,FC(F)(F)C(Cl)Br,-1.7043
4407,B-4408,beta-hexachlorocyclohexane,InChI=1S/C6H6Cl6/c7-1-2(8)4(10)6(12)5(11)3(1)9/h1-6H,JLYXXMFPNIAWKQ-UHFFFAOYSA-N,ClC1C(Cl)C(Cl)C(Cl)C(Cl)C1Cl,-6.0834
4408,B-4409,bis(2-ethylhexyl)phthalate,"InChI=1S/C24H38O4/c1-5-9-13-19(7-3)17-27-23(25)21-15-11-12-16-22(21)24(26)28-18-20(8-4)14-10-6-2/h11-12,15-16,19-20H,5-10,13-14,17-18H2,1-4H3",BJQHLKABXJIVAM-UHFFFAOYSA-N,CCCCC(CC)COC(=O)c1ccccc1C(=O)OCC(CC)CCCC,-6.9684
4409,B-4410,alpha-glucose pentaacetate,"InChI=1S/C16H22O11/c1-8(18)23-7-14(25-10(3)20)16(27-12(5)22)15(26-11(4)21)13(6-17)24-9(2)19/h6,13-16H,7H2,1-5H3/t13-,14+,15+,16+/m0/s1",UAOKXEHOENRFMP-ZJIFWQFVSA-N,CC(=O)OC[C@@H](OC(C)=O)[C@@H](OC(C)=O)[C@H](OC(C)=O)[C@@H](OC(C)=O)C=O,-2.4154
4410,B-4411,4-aminoacetophenone,"InChI=1S/C8H9NO/c1-6(10)7-2-4-8(9)5-3-7/h2-5H,9H2,1H3",GPRYKVSEZCQIHD-UHFFFAOYSA-N,CC(=O)c1ccc(N)cc1,-1.6058
4411,B-4412,p-hydroxyacetophenone,"InChI=1S/C8H8O2/c1-6(9)7-2-4-8(10)5-3-7/h2-5,10H,1H3",TXFPEBPIARQUIG-UHFFFAOYSA-N,CC(=O)c1ccc(O)cc1,-1.1384
4412,B-4413,"2,4-pentanedione","InChI=1S/C5H8O2/c1-4(6)3-5(2)7/h3H2,1-2H3",YRKCREAYFQTBPV-UHFFFAOYSA-N,CC(=O)CC(C)=O,0.2196
4413,B-4414,malononitrile,InChI=1S/C3H2N2/c4-2-1-3-5/h1H2,CUONGYYJJVDODC-UHFFFAOYSA-N,N#CCC#N,0.3039
4414,B-4415,succinonitrile,InChI=1S/C4H4N2/c5-3-1-2-4-6/h1-2H2,IAHFWCOBPZCAEA-UHFFFAOYSA-N,N#CCCC#N,0.2036
4415,B-4416,isoniazid,"InChI=1S/C6H7N3O/c7-9-6(10)5-1-3-8-4-2-5/h1-4H,7H2,(H,9,10)",QRXWMOHMRWLFEY-UHFFFAOYSA-N,NNC(=O)c1ccncc1,0.009000000000000001
4416,B-4417,nicotinamide,"InChI=1S/C6H6N2O/c7-6(9)5-2-1-3-8-4-5/h1-4H,(H2,7,9)",DFPAKSUCGFBDDF-UHFFFAOYSA-N,NC(=O)c1cccnc1,0.6121
4417,B-4418,hexamethylmelamine,InChI=1S/C9H18N6/c1-13(2)7-10-8(14(3)4)12-9(11-7)15(5)6/h1-6H3,UUVWYPNAQBNQJQ-UHFFFAOYSA-N,CN(C)c1nc(nc(n1)N(C)C)N(C)C,-3.3638
4418,B-4419,3-hydroxy-5-methylisoxazole,"InChI=1S/C4H5NO2/c1-3-2-4(6)5-7-3/h2H,1H3,(H,5,6)",KGVPNLBXJKTABS-UHFFFAOYSA-N,CC1=CC(=O)NO1,-0.0666
4419,B-4420,1-napthylthiourea,"InChI=1S/C11H10N2S/c12-11(14)13-10-7-3-5-8-4-1-2-6-9(8)10/h1-7H,(H3,12,13,14)",PIVQQUNOTICCSA-UHFFFAOYSA-N,NC(=S)Nc1cccc2ccccc12,-2.5278
4420,B-4421,n-phenylthiourea,"InChI=1S/C7H8N2S/c8-7(10)9-6-4-2-1-3-5-6/h1-5H,(H3,8,9,10)",FULZLIGZKMKICU-UHFFFAOYSA-N,NC(=S)Nc1ccccc1,-1.7898
4421,B-4422,"1-naphthalenamine, n-phenyl-","InChI=1S/C16H13N/c1-2-9-14(10-3-1)17-16-12-6-8-13-7-4-5-11-15(13)16/h1-12,17H",XQVWYOYUZDUNRW-UHFFFAOYSA-N,N(c1ccccc1)c2cccc3ccccc23,-3.5629
4422,B-4423,"2,3,7,8-tetrachlorodibenzo-p-dioxin",InChI=1S/C12H4Cl4O2/c13-5-1-9-10(2-6(5)14)18-12-4-8(16)7(15)3-11(12)17-9/h1-4H,HGUFODBRKLSHSI-UHFFFAOYSA-N,Clc1cc2Oc3cc(Cl)c(Cl)cc3Oc2cc1Cl,-9.2068
4423,B-4424,"1,2,3,4,6,7,8,9-octachlorodibenzo-p-dioxin",InChI=1S/C12Cl8O2/c13-1-2(14)6(18)10-9(5(1)17)21-11-7(19)3(15)4(16)8(20)12(11)22-10,FOIBFBMSLDGNHL-UHFFFAOYSA-N,Clc1c(Cl)c(Cl)c2Oc3c(Cl)c(Cl)c(Cl)c(Cl)c3Oc2c1Cl,-12.0605
4424,B-4425,"1,2,3,4-tetrachlorodibenzo-p-dioxin",InChI=1S/C12H4Cl4O2/c13-7-8(14)10(16)12-11(9(7)15)17-5-3-1-2-4-6(5)18-12/h1-4H,DJHHDLMTUOLVHY-UHFFFAOYSA-N,Clc1c(Cl)c(Cl)c2Oc3ccccc3Oc2c1Cl,-8.7085
4425,B-4426,"1,3,6,8-tetrachlorodibenzo-p-dioxin",InChI=1S/C12H4Cl4O2/c13-5-1-7(15)11-9(3-5)18-12-8(16)2-6(14)4-10(12)17-11/h1-4H,OTQFXRBLGNEOGH-UHFFFAOYSA-N,Clc1cc(Cl)c2Oc3cc(Cl)cc(Cl)c3Oc2c1,-9.0027
4426,B-4427,"2,7-dichlorodibenzo-p-dioxin",InChI=1S/C12H6Cl2O2/c13-7-1-3-9-11(5-7)16-10-4-2-8(14)6-12(10)15-9/h1-6H,NBFMTHWVRBOVPE-UHFFFAOYSA-N,Clc1ccc2Oc3cc(Cl)ccc3Oc2c1,-7.8292
4427,B-4428,"1,2,3,4,7,8-hexachlorodibenzo-p-dioxin",InChI=1S/C12H2Cl6O2/c13-3-1-5-6(2-4(3)14)20-12-10(18)8(16)7(15)9(17)11(12)19-5/h1-2H,WCYYQNSQJHPVMG-UHFFFAOYSA-N,Clc1cc2Oc3c(Cl)c(Cl)c(Cl)c(Cl)c3Oc2cc1Cl,-10.9486
4428,B-4429,"1,2,4-trichlorodibenzo-p-dioxin",InChI=1S/C12H5Cl3O2/c13-6-5-7(14)11-12(10(6)15)17-9-4-2-1-3-8(9)16-11/h1-5H,HRVUKLBFRPWXPJ-UHFFFAOYSA-N,Clc1cc(Cl)c2Oc3ccccc3Oc2c1Cl,-7.5339
4429,B-4430,"1,2,3,4,7-pentachlorodibenzo-p-dioxin",InChI=1S/C12H3Cl5O2/c13-4-1-2-5-6(3-4)19-12-10(17)8(15)7(14)9(16)11(12)18-5/h1-3H,WRNGAZFESPEMCN-UHFFFAOYSA-N,Clc1ccc2Oc3c(Cl)c(Cl)c(Cl)c(Cl)c3Oc2c1,-9.4728
4430,B-4431,"2,3,7,8-tetrachlorodibenzofuran",InChI=1S/C12H4Cl4O/c13-7-1-5-6-2-8(14)10(16)4-12(6)17-11(5)3-9(7)15/h1-4H,KSMVNVHUTQZITP-UHFFFAOYSA-N,Clc1cc2oc3cc(Cl)c(Cl)cc3c2cc1Cl,-8.6456
4431,B-4432,"1,2,3,7-tetrachlorodibenzodioxin",InChI=1S/C12H4Cl4O2/c13-5-1-2-7-8(3-5)17-9-4-6(14)10(15)11(16)12(9)18-7/h1-4H,SKGXYFVQZVPEFP-UHFFFAOYSA-N,Clc1ccc2Oc3c(Cl)c(Cl)c(Cl)cc3Oc2c1,-8.8744
4432,B-4433,"acetamide, n-(4-hydroxyphenyl)","InChI=1S/C8H9NO2/c1-6(10)9-7-2-4-8(11)5-3-7/h2-5,11H,1H3,(H,9,10)",RZVAJINKPMORJF-UHFFFAOYSA-N,CC(=O)Nc1ccc(O)cc1,-1.0333
4433,B-4434,"3,3',4,4'-pcb",InChI=1S/C12H6Cl4/c13-9-3-1-7(5-11(9)15)8-2-4-10(14)12(16)6-8/h1-6H,UQMGJOKDKOLIDP-UHFFFAOYSA-N,Clc1ccc(cc1Cl)c2ccc(Cl)c(Cl)c2,-8.7103
4434,B-4435,"2,2',3,3',6-pentachlorobiphenyl",InChI=1S/C12H5Cl5/c13-7-4-5-9(15)12(17)10(7)6-2-1-3-8(14)11(6)16/h1-5H,QVWUJLANSDKRAH-UHFFFAOYSA-N,Clc1cccc(c1Cl)c2c(Cl)ccc(Cl)c2Cl,-6.7798
4435,B-4436,"4-(n,n-dimethylamino)azobenzene","InChI=1S/C14H15N3/c1-17(2)14-10-8-13(9-11-14)16-15-12-6-4-3-5-7-12/h3-11H,1-2H3",JCYPECIVGRXBMO-UHFFFAOYSA-N,CN(C)c1ccc(cc1)N=Nc2ccccc2,-5.9910000000000005
4436,B-4437,o-hydroxybenzamide,"InChI=1S/C7H7NO2/c8-7(10)5-3-1-2-4-6(5)9/h1-4,9H,(H2,8,10)",SKZKKFZAGNVIMN-UHFFFAOYSA-N,NC(=O)c1ccccc1O,-1.8233
4437,B-4438,phthalic anhydride,InChI=1S/C8H4O3/c9-7-5-3-1-2-4-6(5)8(10)11-7/h1-4H,LGRFSURHDFAFJT-UHFFFAOYSA-N,O=C1OC(=O)c2ccccc12,-1.3782
4438,B-4439,salicylanilide,"InChI=1S/C13H11NO2/c15-12-9-5-4-8-11(12)13(16)14-10-6-2-1-3-7-10/h1-9,15H,(H,14,16)",WKEDVNSFRWHDNR-UHFFFAOYSA-N,Oc1ccccc1C(=O)Nc2ccccc2,-3.5885
4439,B-4440,benzoyl peroxide,InChI=1S/C14H10O4/c15-13(11-7-3-1-4-8-11)17-18-14(16)12-9-5-2-6-10-12/h1-10H,OMPJBNCRMGITSC-UHFFFAOYSA-N,O=C(OOC(=O)c1ccccc1)c2ccccc2,-4.4252
4440,B-4441,n4-acetylsulfanilamide,"InChI=1S/C8H10N2O3S/c1-6(11)10-7-2-4-8(5-3-7)14(9,12)13/h2-5H,1H3,(H,10,11)(H2,9,12,13)",PKOFBDHYTMYVGJ-UHFFFAOYSA-N,CC(=O)Nc1ccc(cc1)[S](N)(=O)=O,-1.6066
4441,B-4442,primidone,"InChI=1S/C12H14N2O2/c1-2-12(9-6-4-3-5-7-9)10(15)13-8-14-11(12)16/h3-7H,2,8H2,1H3,(H,13,15)(H,14,16)",DQMZLTXERSFNPB-UHFFFAOYSA-N,CCC1(C(=O)NCNC1=O)c2ccccc2,-2.64
4442,B-4443,o-hydroxyacetanilide,"InChI=1S/C8H9NO2/c1-6(10)9-7-4-2-3-5-8(7)11/h2-5,11H,1H3,(H,9,10)",ADVGKWPZRIDURE-UHFFFAOYSA-N,CC(=O)Nc1ccccc1O,-2.235
4443,B-4444,"1,2,3-propanetriol trinitrate","InChI=1S/C3H5N3O9/c7-4(8)13-1-3(15-6(11)12)2-14-5(9)10/h3H,1-2H2",SNIOPGDIGTZGOP-UHFFFAOYSA-N,[O-][N+](=O)OCC(CO[N+]([O-])=O)O[N+]([O-])=O,-2.2163
4444,B-4445,caffeine,"InChI=1S/C8H10N4O2/c1-10-4-9-6-5(10)7(13)12(3)8(14)11(6)2/h4H,1-3H3",RYYVLZVUVIJVGH-UHFFFAOYSA-N,Cn1cnc2N(C)C(=O)N(C)C(=O)c12,-0.966
4445,B-4446,theophylline,"InChI=1S/C7H8N4O2/c1-10-5-4(8-3-9-5)6(12)11(2)7(10)13/h3H,1-2H3,(H,8,9)",ZFXYFBGIUFBOJW-UHFFFAOYSA-N,CN1C(=O)N(C)c2nc[nH]c2C1=O,-1.3888
4446,B-4447,creatinine,"InChI=1S/C4H7N3O/c1-7-2-3(8)6-4(7)5/h2H2,1H3,(H2,5,6,8)",DDRJAANPRJIHGJ-UHFFFAOYSA-N,CN1CC(=O)N=C1N,-0.1499
4447,B-4448,cycloheximide,"InChI=1S/C15H23NO4/c1-8-3-9(2)15(20)11(4-8)12(17)5-10-6-13(18)16-14(19)7-10/h8-12,17H,3-7H2,1-2H3,(H,16,18,19)/t8-,9-,11-,12+/m0/s1",YPHMISFOHDHNIV-FSZOTQKASA-N,C[C@H]1C[C@H](C)C(=O)[C@@H](C1)[C@H](O)CC2CC(=O)NC(=O)C2,-1.127
4448,B-4449,trichloronitromethane,"InChI=1S/CCl3NO2/c2-1(3,4)5(6)7",LFHISGNCFUNFFM-UHFFFAOYSA-N,[O-][N+](=O)C(Cl)(Cl)Cl,-2.0063
4449,B-4450,2-ethyl-2-phenylgluterimide,"InChI=1S/C13H15NO2/c1-2-13(10-6-4-3-5-7-10)9-8-11(15)14-12(13)16/h3-7H,2,8-9H2,1H3,(H,14,15,16)",JMBQKKAJIKAWKF-UHFFFAOYSA-N,CCC1(CCC(=O)NC1=O)c2ccccc2,-2.3374
4450,B-4451,isosorbide dinitrate,"InChI=1S/C6H8N2O8/c9-7(10)15-3-1-13-6-4(16-8(11)12)2-14-5(3)6/h3-6H,1-2H2/t3-,4+,5-,6-/m1/s1",MOYKHGMNXAOIAT-JGWLITMVSA-N,[O-][N+](=O)O[C@H]1CO[C@@H]2[C@@H](CO[C@H]12)O[N+]([O-])=O,-2.6328
4451,B-4452,pteridine,InChI=1S/C6H4N4/c1-2-9-6-5(8-1)3-7-4-10-6/h1-4H,CPNGPNLZQNNVQM-UHFFFAOYSA-N,c1cnc2ncncc2n1,0.0343
4452,B-4453,maleic hydrazide,"InChI=1S/C4H4N2O2/c7-3-1-2-4(8)6-5-3/h1-2H,(H,5,7)(H,6,8)",BGRDGMRNKXEXQD-UHFFFAOYSA-N,O=C1NNC(=O)C=C1,-1.2714
4453,B-4454,2-pyrazinecarboxamide,"InChI=1S/C5H5N3O/c6-5(9)4-3-7-1-2-8-4/h1-3H,(H2,6,9)",IPEHBUMCGVEMRF-UHFFFAOYSA-N,NC(=O)c1cnccn1,-0.9142
4454,B-4455,"2,6-dimethyl-4-pyrimidinamine","InChI=1S/C6H9N3/c1-4-3-6(7)9-5(2)8-4/h3H,1-2H3,(H2,7,8,9)",BJJDXAFKCKSLTE-UHFFFAOYSA-N,Cc1cc(N)nc(C)n1,-1.2843
4455,B-4456,phenylbutazone,"InChI=1S/C19H20N2O2/c1-2-3-14-17-18(22)20(15-10-6-4-7-11-15)21(19(17)23)16-12-8-5-9-13-16/h4-13,17H,2-3,14H2,1H3",VYMDGNCVAMGZFE-UHFFFAOYSA-N,CCCCC1C(=O)N(N(C1=O)c2ccccc2)c3ccccc3,-3.8124
4456,B-4457,pencillamine,"InChI=1S/C5H11NO2S/c1-5(2,9)3(6)4(7)8/h3,9H,6H2,1-2H3,(H,7,8)/t3-/m0/s1",VVNCNSJFMMFHPL-VKHMYHEASA-N,CC(C)(S)[C@@H](N)C(O)=O,-0.1285
4457,B-4458,haloperidol,"InChI=1S/C21H23ClFNO2/c22-18-7-5-17(6-8-18)21(26)11-14-24(15-12-21)13-1-2-20(25)16-3-9-19(23)10-4-16/h3-10,26H,1-2,11-15H2",LNEPOXFFQSENCJ-UHFFFAOYSA-N,OC1(CCN(CCCC(=O)c2ccc(F)cc2)CC1)c3ccc(Cl)cc3,-4.4289
4458,B-4459,chloramphenicol,"InChI=1S/C11H12Cl2N2O5/c12-10(13)11(18)14-8(5-16)9(17)6-1-3-7(4-2-6)15(19)20/h1-4,8-10,16-17H,5H2,(H,14,18)",WIIZWVCIJKGZOK-UHFFFAOYSA-N,OCC(NC(=O)C(Cl)Cl)C(O)c1ccc(cc1)[N+]([O-])=O,-2.1114
4459,B-4460,strychnine,"InChI=1S/C21H22N2O2/c24-18-10-16-19-13-9-17-21(6-7-22(17)11-12(13)5-8-25-16)14-3-1-2-4-15(14)23(18)20(19)21/h1-5,13,16-17,19-20H,6-11H2/t13-,16-,17-,19-,20-,21+/m0/s1",QMGVPVSNSZLJIA-FVWCLLPLSA-N,O=C1C[C@@H]2OCC=C3CN4CC[C@@]56[C@@H]4C[C@@H]3[C@@H]2[C@@H]5N1c7ccccc67,-3.3202
4460,B-4461,meprobamate,"InChI=1S/C9H18N2O4/c1-3-4-9(2,5-14-7(10)12)6-15-8(11)13/h3-6H2,1-2H3,(H2,10,12)(H2,11,13)",NPPQSCRMBWNHMW-UHFFFAOYSA-N,CCCC(C)(COC(N)=O)COC(N)=O,-1.6669
4461,B-4462,sulfamethazine,"InChI=1S/C12H14N4O2S/c1-8-7-9(2)15-12(14-8)16-19(17,18)11-5-3-10(13)4-6-11/h3-7H,13H2,1-2H3,(H,14,15,16)",ASWVTGNCAZCNNR-UHFFFAOYSA-N,Cc1cc(C)nc(N[S](=O)(=O)c2ccc(N)cc2)n1,-2.2685
4462,B-4463,aminopyrine,"InChI=1S/C13H17N3O/c1-10-12(14(2)3)13(17)16(15(10)4)11-8-6-5-7-9-11/h5-9H,1-4H3",RMMXTBMQSGEXHJ-UHFFFAOYSA-N,CN(C)C1=C(C)N(C)N(c2ccccc2)C1=O,-0.6286
4463,B-4464,perphenazine,"InChI=1S/C21H26ClN3OS/c22-17-6-7-21-19(16-17)25(18-4-1-2-5-20(18)27-21)9-3-8-23-10-12-24(13-11-23)14-15-26/h1-2,4-7,16,26H,3,8-15H2",RGCVKNLCSQQDEP-UHFFFAOYSA-N,OCCN1CCN(CCCN2c3ccccc3Sc4ccc(Cl)cc24)CC1,-4.1546
4464,B-4465,promazine,"InChI=1S/C17H20N2S/c1-18(2)12-7-13-19-14-8-3-5-10-16(14)20-17-11-6-4-9-15(17)19/h3-6,8-11H,7,12-13H2,1-2H3",ZGUGWUXLJSTTMA-UHFFFAOYSA-N,CN(C)CCCN1c2ccccc2Sc3ccccc13,-4.3017
4465,B-4466,hydrochlorothiazide,"InChI=1S/C7H8ClN3O4S2/c8-4-1-5-7(2-6(4)16(9,12)13)17(14,15)11-3-10-5/h1-2,10-11H,3H2,(H2,9,12,13)",JZUFKLXOESDKRF-UHFFFAOYSA-N,N[S](=O)(=O)c1cc2c(NCN[S]2(=O)=O)cc1Cl,-2.6153
4466,B-4467,chlorothiazide,"InChI=1S/C7H6ClN3O4S2/c8-4-1-5-7(2-6(4)16(9,12)13)17(14,15)11-3-10-5/h1-3H,(H,10,11)(H2,9,12,13)",JBMKAUGHUNFTOL-UHFFFAOYSA-N,N[S](=O)(=O)c1cc2c(NC=N[S]2(=O)=O)cc1Cl,-3.0460000000000003
4467,B-4468,acetazoleamide,"InChI=1S/C4H6N4O3S2/c1-2(9)6-3-7-8-4(12-3)13(5,10)11/h1H3,(H2,5,10,11)(H,6,7,9)",BZKPWHYZMXOIDC-UHFFFAOYSA-N,CC(=O)Nc1sc(nn1)[S](N)(=O)=O,-2.3556
4468,B-4469,antipyrine,"InChI=1S/C11H12N2O/c1-9-8-11(14)13(12(9)2)10-6-4-3-5-7-10/h3-8H,1-2H3",VEQOALNAAJBPNY-UHFFFAOYSA-N,CN1N(C(=O)C=C1C)c2ccccc2,-0.5642
4469,B-4470,promethazine,"InChI=1S/C17H20N2S/c1-13(18(2)3)12-19-14-8-4-6-10-16(14)20-17-11-7-5-9-15(17)19/h4-11,13H,12H2,1-3H3",PWWVAXIEGOYWEE-UHFFFAOYSA-N,CC(CN1c2ccccc2Sc3ccccc13)N(C)C,-4.2597
4470,B-4471,niridazole,"InChI=1S/C6H6N4O3S/c11-5-7-1-2-9(5)6-8-3-4(14-6)10(12)13/h3H,1-2H2,(H,7,11)",RDXLYGJSWZYTFJ-UHFFFAOYSA-N,[O-][N+](=O)c1sc(nc1)N2CCNC2=O,-3.2169
4471,B-4472,p-phenacetin,"InChI=1S/C10H13NO2/c1-3-13-10-6-4-9(5-7-10)11-8(2)12/h4-7H,3H2,1-2H3,(H,11,12)",CPJSUEIXXCENMM-UHFFFAOYSA-N,CCOc1ccc(NC(C)=O)cc1,-2.3692
4472,B-4473,sulfanilamide,"InChI=1S/C6H8N2O2S/c7-5-1-3-6(4-2-5)11(8,9)10/h1-4H,7H2,(H2,8,9,10)",FDDDEECHVMSUSB-UHFFFAOYSA-N,Nc1ccc(cc1)[S](N)(=O)=O,-1.361
4473,B-4474,fluphenazine,"InChI=1S/C22H26F3N3OS/c23-22(24,25)17-6-7-21-19(16-17)28(18-4-1-2-5-20(18)30-21)9-3-8-26-10-12-27(13-11-26)14-15-29/h1-2,4-7,16,29H,3,8-15H2",PLDUPXSUYLZYBN-UHFFFAOYSA-N,OCCN1CCN(CCCN2c3ccccc3Sc4ccc(cc24)C(F)(F)F)CC1,-4.1488
4474,B-4475,tubercidin,"InChI=1S/C11H14N4O4/c12-9-5-1-2-15(10(5)14-4-13-9)11-8(18)7(17)6(3-16)19-11/h1-2,4,6-8,11,16-18H,3H2,(H2,12,13,14)",HDZZVAMISRMYHH-UHFFFAOYSA-N,Nc1ncnc2n(ccc12)C3OC(CO)C(O)C3O,-1.9515
4475,B-4476,sulfathiozole,"InChI=1S/C9H9N3O2S2/c10-7-1-3-8(4-2-7)16(13,14)12-9-11-5-6-15-9/h1-6H,10H2,(H,11,12)",JNMRHUJNCSQMMB-UHFFFAOYSA-N,Nc1ccc(cc1)[S](=O)(=O)Nc2sccn2,-2.4248
4476,B-4477,thiamylal,"InChI=1S/C12H18N2O2S/c1-4-6-8(3)12(7-5-2)9(15)13-11(17)14-10(12)16/h5,8H,2,4,6-7H2,1,3H3,(H2,13,14,15,16,17)",XLOMZPUITCYLMJ-UHFFFAOYSA-N,CCCC(C)C1(CC=C)C(=O)NC(=S)NC1=O,-3.4585
4477,B-4478,sulfamethoxypyridazine,"InChI=1S/C11H12N4O3S/c1-18-11-7-6-10(13-14-11)15-19(16,17)9-4-2-8(12)3-5-9/h2-7H,12H2,1H3,(H,13,15)",VLYWMPOKSSWJAL-UHFFFAOYSA-N,COc1ccc(N[S](=O)(=O)c2ccc(N)cc2)nn1,-1.5903
4478,B-4479,"1,1-diox-1,2-benzisothiazol-3-one","InChI=1S/C7H5NO3S/c9-7-5-3-1-2-4-6(5)12(10,11)8-7/h1-4H,(H,8,9)",CVHZOJJKTDOEJC-UHFFFAOYSA-N,O=C1N[S](=O)(=O)c2ccccc12,-1.6608
4479,B-4480,theobromine,"InChI=1S/C7H8N4O2/c1-10-3-8-5-4(10)6(12)9-7(13)11(5)2/h3H,1-2H3,(H,9,12,13)",YAPQBXQYLJRXSA-UHFFFAOYSA-N,Cn1cnc2N(C)C(=O)NC(=O)c12,-2.7372
4480,B-4481,phthalimide,"InChI=1S/C8H5NO2/c10-7-5-3-1-2-4-6(5)8(11)9-7/h1-4H,(H,9,10,11)",XKJCHHZQLQNZHY-UHFFFAOYSA-N,O=C1NC(=O)c2ccccc12,-2.6114
4481,B-4482,coumarin,InChI=1S/C9H6O2/c10-9-6-5-7-3-1-2-4-8(7)11-9/h1-6H,ZYGHJZDHTFUPRJ-UHFFFAOYSA-N,O=C1Oc2ccccc2C=C1,-1.886