,ID,Name,InChI,InChIKey,SMILES,Solubility
752,B-753,demeton-s,"InChI=1S/C8H19O3PS2/c1-4-10-12(9,11-5-2)14-8-7-13-6-3/h4-8H2,1-3H3",GRPRVIYRYGLIJU-UHFFFAOYSA-N,CCO[P](=O)(OCC)SCCSCC,-2.1112
753,B-754,"5,5-dimethyl-1,3-cyclohexanedione","InChI=1S/C8H12O2/c1-8(2)4-6(9)3-7(10)5-8/h3-5H2,1-2H3",BADXJIPKFRBFOT-UHFFFAOYSA-N,CC1(C)CC(=O)CC(=O)C1,-1.5276
754,B-755,oxanamide,"InChI=1S/C8H15NO2/c1-3-5-6-8(4-2,11-6)7(9)10/h6H,3-5H2,1-2H3,(H2,9,10)",WBLPIVIXQOFTPQ-UHFFFAOYSA-N,CCCC1OC1(CC)C(N)=O,-1.1745
755,B-756,hydroxyurea,"InChI=1S/CH4N2O2/c2-1(4)3-5/h5H,(H3,2,3,4)",VSNHCAURESNICA-UHFFFAOYSA-N,NC(=O)NO,1.1189
756,B-757,pyruvic acid,"InChI=1S/C3H4O3/c1-2(4)3(5)6/h1H3,(H,5,6)",LCTONWCANYUPML-UHFFFAOYSA-N,CC(=O)C(O)=O,1.0552
757,B-758,alpha-ionone,"InChI=1S/C13H20O/c1-10-6-5-9-13(3,4)12(10)8-7-11(2)14/h6-8,12H,5,9H2,1-4H3/b8-7+",UZFLPKAIBPNNCA-BQYQJAHWSA-N,CC(=O)/C=C/C1C(=CCCC1(C)C)C,-3.2587
758,B-759,trimethadione,InChI=1S/C6H9NO3/c1-6(2)4(8)7(3)5(9)10-6/h1-3H3,IRYJRGCIQBGHIV-UHFFFAOYSA-N,CN1C(=O)OC(C)(C)C1=O,-0.4568
759,B-760,"benzamide, n- (4-aminophenyl)sulfonyl -","InChI=1S/C13H12N2O3S/c14-11-6-8-12(9-7-11)19(17,18)15-13(16)10-4-2-1-3-5-10/h1-9H,14H2,(H,15,16)",PBCZLFBEBARBBI-UHFFFAOYSA-N,Nc1ccc(cc1)[S](=O)(=O)NC(=O)c2ccccc2,-2.9501
760,B-761,sulfamerazine,"InChI=1S/C11H12N4O2S/c1-8-6-7-13-11(14-8)15-18(16,17)10-4-2-9(12)3-5-10/h2-7H,12H2,1H3,(H,13,14,15)",QPPBRPIAZZHUNT-UHFFFAOYSA-N,Cc1ccnc(N[S](=O)(=O)c2ccc(N)cc2)n1,-3.1168
761,B-762,silver lactate,"InChI=1S/C3H5O3.Ag/c1-2(4)3(5)6;/h2H,1H3,(H,5,6);/q-1;+1",CUPCAVOUAWGFEI-UHFFFAOYSA-N,[Ag+].CC([O-])C(O)=O,-0.4702
762,B-763,"2,5-pyrrolidinedione, 1-bromo-",InChI=1S/C4H4BrNO2/c5-6-3(7)1-2-4(6)8/h1-2H2,PCLIMKBDDGJMGD-UHFFFAOYSA-N,BrN1C(=O)CCC1=O,-1.0831
763,B-764,"1-chloro-2,5-pyrrolidinedione",InChI=1S/C4H4ClNO2/c5-6-3(7)1-2-4(6)8/h1-2H2,JRNVZBWKYDBUCA-UHFFFAOYSA-N,ClN1C(=O)CCC1=O,-0.9702
764,B-765,ursodeoxycholic acid,"InChI=1S/C24H40O4/c1-14(4-7-21(27)28)17-5-6-18-22-19(9-11-24(17,18)3)23(2)10-8-16(25)12-15(23)13-20(22)26/h14-20,22,25-26H,4-13H2,1-3H3,(H,27,28)/t14-,15+,16-,17-,18+,19+,20+,22+,23+,24-/m1/s1",RUDATBOHQWOJDD-UZVSRGJWSA-N,C[C@H](CCC(O)=O)[C@H]1CC[C@H]2[C@@H]3[C@@H](O)C[C@@H]4C[C@H](O)CC[C@]4(C)[C@H]3CC[C@]12C,-4.2929
765,B-766,"2,6-di-t-butyl-4-methylphenol (bht)","InChI=1S/C15H24O/c1-10-8-11(14(2,3)4)13(16)12(9-10)15(5,6)7/h8-9,16H,1-7H3",NLZUEZXRPGMBCV-UHFFFAOYSA-N,Cc1cc(c(O)c(c1)C(C)(C)C)C(C)(C)C,-5.565
766,B-767,"2,6-di-t-butylphenol","InChI=1S/C14H22O/c1-13(2,3)10-8-7-9-11(12(10)15)14(4,5)6/h7-9,15H,1-6H3",DKCPKDPYUFEZCP-UHFFFAOYSA-N,CC(C)(C)c1cccc(c1O)C(C)(C)C,-4.9166
767,B-768,noscapine,"InChI=1S/C22H23NO7/c1-23-8-7-11-9-14-20(29-10-28-14)21(27-4)15(11)17(23)18-12-5-6-13(25-2)19(26-3)16(12)22(24)30-18/h5-6,9,17-18H,7-8,10H2,1-4H3/t17-,18+/m1/s1",AKNNEGZIBPJZJG-MSOLQXFVSA-N,COc1ccc2[C@H](OC(=O)c2c1OC)[C@@H]3N(C)CCc4cc5OCOc5c(OC)c34,-3.1393
768,B-769,1-hydroxyanthraquinone,"InChI=1S/C14H8O3/c15-11-7-3-6-10-12(11)14(17)9-5-2-1-4-8(9)13(10)16/h1-7,15H",BTLXPCBPYBNQNR-UHFFFAOYSA-N,Oc1cccc2C(=O)c3ccccc3C(=O)c12,-4.4213
769,B-770,"2,4,6-trinitrobenzoic acid","InChI=1S/C7H3N3O8/c11-7(12)6-4(9(15)16)1-3(8(13)14)2-5(6)10(17)18/h1-2H,(H,11,12)",KAQBNBSMMVTKRN-UHFFFAOYSA-N,OC(=O)c1c(cc(cc1[N+]([O-])=O)[N+]([O-])=O)[N+]([O-])=O,-1.0977
770,B-771,"8-quinolinol,5-chloro-","InChI=1S/C9H6ClNO/c10-7-3-4-8(12)9-6(7)2-1-5-11-9/h1-5,12H",CTQMJYWDVABFRZ-UHFFFAOYSA-N,Oc1ccc(Cl)c2cccnc12,-3.9756
771,B-772,"2-cyclohexyl-4,6-dinitrophenol","InChI=1S/C12H14N2O5/c15-12-10(8-4-2-1-3-5-8)6-9(13(16)17)7-11(12)14(18)19/h6-8,15H,1-5H2",QJYHUJAGJUHXJN-UHFFFAOYSA-N,Oc1c(cc(cc1[N+]([O-])=O)[N+]([O-])=O)C2CCCCC2,-4.2492
772,B-773,2-phenylcinchoninic acid,"InChI=1S/C16H11NO2/c18-16(19)13-10-15(11-6-2-1-3-7-11)17-14-9-5-4-8-12(13)14/h1-10H,(H,18,19)",YTRMTPPVNRALON-UHFFFAOYSA-N,OC(=O)c1cc(nc2ccccc12)c3ccccc3,-3.1926
773,B-774,npa (naptalam),"InChI=1S/C18H13NO3/c20-17(14-9-3-4-10-15(14)18(21)22)19-16-11-5-7-12-6-1-2-8-13(12)16/h1-11H,(H,19,20)(H,21,22)",JXTHEWSKYLZVJC-UHFFFAOYSA-N,OC(=O)c1ccccc1C(=O)Nc2cccc3ccccc23,-3.1633
774,B-775,"naphthalene-1,3-diol","InChI=1S/C10H8O2/c11-8-5-7-3-1-2-4-9(7)10(12)6-8/h1-6,11-12H",XOOMNEFVDUTJPP-UHFFFAOYSA-N,Oc1cc(O)c2ccccc2c1,-1.9493
775,B-776,captan,"InChI=1S/C9H8Cl3NO2S/c10-9(11,12)16-13-7(14)5-3-1-2-4-6(5)8(13)15/h1-2,5-6H,3-4H2",LDVVMCZRFWMZSG-UHFFFAOYSA-N,ClC(Cl)(Cl)SN1C(=O)C2CC=CCC2C1=O,-4.7704
776,B-777,folpet,"InChI=1S/C9H4Cl3NO2S/c10-9(11,12)16-13-7(14)5-3-1-2-4-6(5)8(13)15/h1-4H",HKIOYBQGHSTUDB-UHFFFAOYSA-N,ClC(Cl)(Cl)SN1C(=O)c2ccccc2C1=O,-5.569
777,B-778,3-indolebutyric acid,"InChI=1S/C12H13NO2/c14-12(15)7-3-4-9-8-13-11-6-2-1-5-10(9)11/h1-2,5-6,8,13H,3-4,7H2,(H,14,15)",JTEDVYBZBROSJT-UHFFFAOYSA-N,OC(=O)CCCc1c[nH]c2ccccc12,-2.9101
778,B-779,dl-tartaric acid,"InChI=1S/C4H6O6/c5-1(3(7)8)2(6)4(9)10/h1-2,5-6H,(H,7,8)(H,9,10)",FEWJPZIEWOKRBE-UHFFFAOYSA-N,OC(C(O)C(O)=O)C(O)=O,0.1561
779,B-780,"phenol, 2,4-dichloro-3,5-dimethyl-","InChI=1S/C8H8Cl2O/c1-4-3-6(11)8(10)5(2)7(4)9/h3,11H,1-2H3",IYOLBFFHPZOQGW-UHFFFAOYSA-N,Cc1cc(O)c(Cl)c(C)c1Cl,-2.9801
780,B-781,"3,5-diiodosalicylic acid","InChI=1S/C7H4I2O3/c8-3-1-4(7(11)12)6(10)5(9)2-3/h1-2,10H,(H,11,12)",DHZVWQPHNWDCFS-UHFFFAOYSA-N,OC(=O)c1cc(I)cc(I)c1O,-3.307
781,B-782,methyl anthranilate,"InChI=1S/C8H9NO2/c1-11-8(10)6-4-2-3-5-7(6)9/h2-5H,9H2,1H3",VAMXMNNIEUEQDV-UHFFFAOYSA-N,COC(=O)c1ccccc1N,-1.7246
782,B-783,"benzoic acid, 2-(acetyloxy)-, phenyl ester","InChI=1S/C15H12O4/c1-11(16)18-14-10-6-5-9-13(14)15(17)19-12-7-3-2-4-8-12/h2-10H,1H3",PSBAIJVSCTZDDB-UHFFFAOYSA-N,CC(=O)Oc1ccccc1C(=O)Oc2ccccc2,-4.1077
783,B-784,hydroflumethiazide,"InChI=1S/C8H8F3N3O4S2/c9-8(10,11)4-1-5-7(2-6(4)19(12,15)16)20(17,18)14-3-13-5/h1-2,13-14H,3H2,(H2,12,15,16)",DMDGGSIALPNSEE-UHFFFAOYSA-N,N[S](=O)(=O)c1cc2c(NCN[S]2(=O)=O)cc1C(F)(F)F,-3.0431
784,B-785,4-amino-4'-chlorodiphenyl,"InChI=1S/C12H10ClN/c13-11-5-1-9(2-6-11)10-3-7-12(14)8-4-10/h1-8H,14H2",OREQWMWYRYXCDF-UHFFFAOYSA-N,Nc1ccc(cc1)c2ccc(Cl)cc2,-4.6383
785,B-786,"1,3-diphenyl-1-triazene","InChI=1S/C12H11N3/c1-3-7-11(8-4-1)13-15-14-12-9-5-2-6-10-12/h1-10H,(H,13,14)",ALIFPGGMJDWMJH-UHFFFAOYSA-N,N(N=Nc1ccccc1)c2ccccc2,-2.596
786,B-787,"benzenamine, 2-ethoxy-5-nitro-","InChI=1S/C8H10N2O3/c1-2-13-8-4-3-6(10(11)12)5-7(8)9/h3-5H,2,9H2,1H3",AMMPGYPPRLWMLW-UHFFFAOYSA-N,CCOc1ccc(cc1N)[N+]([O-])=O,-3.2113
787,B-788,"2,4,5-trimethylaniline","InChI=1S/C9H13N/c1-6-4-8(3)9(10)5-7(6)2/h4-5H,10H2,1-3H3",BMIPMKQAAJKBKP-UHFFFAOYSA-N,Cc1cc(C)c(N)cc1C,-1.9549
788,B-789,sodium propionate,"InChI=1S/C3H6O2.Na/c1-2-3(4)5;/h2H2,1H3,(H,4,5);/q;+1/p-1",JXKPEJDQGNYQSM-UHFFFAOYSA-M,[Na+].CCC([O-])=O,0.7164
789,B-790,"methyldithiocarbamic acid, na salt","InChI=1S/C2H5NS2.Na/c1-3-2(4)5;/h1H3,(H2,3,4,5);/q;+1/p-1",AFCCDDWKHLHPDF-UHFFFAOYSA-M,[Na+].CNC([S-])=S,0.7473
790,B-791,glutamic acid hydrochloride,"InChI=1S/C5H9NO4.ClH/c6-3(5(9)10)1-2-4(7)8;/h3H,1-2,6H2,(H,7,8)(H,9,10);1H",RPAJSBKBKSSMLJ-UHFFFAOYSA-N,[H+].[Cl-].NC(CCC(O)=O)C(O)=O,0.3159
791,B-792,butyl lactate,"InChI=1S/C7H14O3/c1-3-4-5-10-7(9)6(2)8/h6,8H,3-5H2,1-2H3",MRABAEUHTLLEML-UHFFFAOYSA-N,CCCCOC(=O)C(C)O,-0.5629
792,B-793,"benzenesulfonic acid, 3-hydrazino-","InChI=1S/C6H8N2O3S/c7-8-5-2-1-3-6(4-5)12(9,10)11/h1-4,8H,7H2,(H,9,10,11)",ZDGHHRPKFCVOJL-UHFFFAOYSA-N,NNc1cccc(c1)[S](O)(=O)=O,-0.8275
793,B-794,"benzenesulfonamide, 4-(aminomethyl)-","InChI=1S/C7H10N2O2S/c8-5-6-1-3-7(4-2-6)12(9,10)11/h1-4H,5,8H2,(H2,9,10,11)",TYMRLRRVMHJFTF-UHFFFAOYSA-N,NCc1ccc(cc1)[S](N)(=O)=O,0.321
794,B-795,salicin,"InChI=1S/C13H18O7/c14-5-7-3-1-2-4-8(7)19-13-12(18)11(17)10(16)9(6-15)20-13/h1-4,9-18H,5-6H2/t9-,10-,11+,12-,13-/m1/s1",NGFMICBWJRZIBI-UJPOAAIJSA-N,OC[C@H]1O[C@@H](Oc2ccccc2CO)[C@H](O)[C@@H](O)[C@@H]1O,-0.8547
795,B-796,shikimic acid,"InChI=1S/C7H10O5/c8-4-1-3(7(11)12)2-5(9)6(4)10/h1,4-6,8-10H,2H2,(H,11,12)",JXOHGGNKMLTUBP-UHFFFAOYSA-N,OC1CC(=CC(O)C1O)C(O)=O,-0.0648
796,B-797,limonene,"InChI=1S/C10H16/c1-8(2)10-6-4-9(3)5-7-10/h4,10H,1,5-7H2,2-3H3",XMGQYMWWDOXHJM-UHFFFAOYSA-N,CC(=C)C1CCC(=CC1)C,-4.2552
797,B-798,nitrilotriacetic acid,"InChI=1S/C6H9NO6/c8-4(9)1-7(2-5(10)11)3-6(12)13/h1-3H2,(H,8,9)(H,10,11)(H,12,13)",MGFYIUFZLHCRTH-UHFFFAOYSA-N,OC(=O)CN(CC(O)=O)CC(O)=O,-0.5101
798,B-799,"3,4-dihydroxybenzaldehyde","InChI=1S/C7H6O3/c8-4-5-1-2-6(9)7(10)3-5/h1-4,9-10H",IBGBGRVKPALMCQ-UHFFFAOYSA-N,Oc1ccc(C=O)cc1O,-1.3402
799,B-800,"2-thiophenepropanoic acid, .alpha.-amino-","InChI=1S/C7H9NO2S/c8-6(7(9)10)4-5-2-1-3-11-5/h1-3,6H,4,8H2,(H,9,10)",WTOFYLAWDLQMBZ-UHFFFAOYSA-N,NC(Cc1sccc1)C(O)=O,-0.8356
800,B-801,"ethanol, 2,2'-(ethylimino)bis-","InChI=1S/C6H15NO2/c1-2-7(3-5-8)4-6-9/h8-9H,2-6H2,1H3/p+1",AKNUHUCEWALCOI-UHFFFAOYSA-O,CC[NH+](CCO)CCO,0.8755
801,B-802,furaltadone,"InChI=1S/C13H16N4O6/c18-13-16(14-7-10-1-2-12(22-10)17(19)20)9-11(23-13)8-15-3-5-21-6-4-15/h1-2,7,11H,3-6,8-9H2/b14-7+",YVQVOQKFMFRVGR-VGOFMYFVSA-N,[O-][N+](=O)c1oc(cc1)/C=N/N2CC(CN3CCOCC3)OC2=O,-2.6359
802,B-803,nithiazide,"InChI=1S/C6H8N4O3S/c1-2-7-5(11)9-6-8-3-4(14-6)10(12)13/h3H,2H2,1H3,(H2,7,8,9,11)",FQSUTLQHSDLLAN-UHFFFAOYSA-N,CCNC(=O)Nc1sc(cn1)[N+]([O-])=O,-2.8578
803,B-804,"1,2-ethanediamine, n,n'-bis(phenylmethyl)-","InChI=1S/C16H20N2/c1-3-7-15(8-4-1)13-17-11-12-18-14-16-9-5-2-6-10-16/h1-10,17-18H,11-14H2",JUHORIMYRDESRB-UHFFFAOYSA-N,C(CNCc1ccccc1)NCc2ccccc2,-1.7865
804,B-805,phenylacetonitrile,"InChI=1S/C8H7N/c9-7-6-8-4-2-1-3-5-8/h1-5H,6H2",SUSQOBVLVYHIEX-UHFFFAOYSA-N,N#CCc1ccccc1,-3.0687
805,B-806,fenaminosulf,"InChI=1S/C8H11N3O3S.Na/c1-11(2)8-5-3-7(4-6-8)9-10-15(12,13)14;/h3-6H,1-2H3,(H,12,13,14);/q;+1/p-1",IWDQPCIQCXRBQP-UHFFFAOYSA-M,[Na+].CN(C)c1ccc(cc1)N=N[S]([O-])(=O)=O,-1.0991
806,B-807,"benzene, 1-methoxy-4-(2-propenyl)-","InChI=1S/C10H12O/c1-3-4-9-5-7-10(11-2)8-6-9/h3,5-8H,1,4H2,2H3",ZFMSMUAANRJZFM-UHFFFAOYSA-N,COc1ccc(CC=C)cc1,-2.9209
807,B-808,cyclopentylproprionic acid,"InChI=1S/C8H14O2/c9-8(10)6-5-7-3-1-2-4-7/h7H,1-6H2,(H,9,10)",ZRPLANDPDWYOMZ-UHFFFAOYSA-N,OC(=O)CCC1CCCC1,-1.7691
808,B-809,2-ethylhexyl fumarate,"InChI=1S/C20H36O4/c1-5-9-11-17(7-3)15-23-19(21)13-14-20(22)24-16-18(8-4)12-10-6-2/h13-14,17-18H,5-12,15-16H2,1-4H3/b14-13+",ROPXFXOUUANXRR-BUHFOSPRSA-N,CCCCC(CC)COC(=O)\C=C\C(=O)OCC(CC)CCCC,-3.5321
809,B-810,"butanedioic acid, dibutyl ester","InChI=1S/C12H22O4/c1-3-5-9-15-11(13)7-8-12(14)16-10-6-4-2/h3-10H2,1-2H3",YUXIBTJKHLUKBD-UHFFFAOYSA-N,CCCCOC(=O)CCC(=O)OCCCC,-3.0006
810,B-811,diethyl maleate,"InChI=1S/C8H12O4/c1-3-11-7(9)5-6-8(10)12-4-2/h5-6H,3-4H2,1-2H3/b6-5-",IEPRKVQEAMIZSS-WAYWQWQTSA-N,CCOC(=O)\C=C/C(=O)OCC,-1.0899
811,B-812,diethylhexanedioate,"InChI=1S/C10H18O4/c1-3-13-9(11)7-5-6-8-10(12)14-4-2/h3-8H2,1-2H3",VIZORQUEIQEFRT-UHFFFAOYSA-N,CCOC(=O)CCCCC(=O)OCC,-1.6795
812,B-813,ethanolamine,"InChI=1S/C2H7NO/c3-1-2-4/h4H,1-3H2",HZAXFHJVJLSVMW-UHFFFAOYSA-N,NCCO,1.2141
813,B-814,sodium formate,"InChI=1S/CH2O2.Na/c2-1-3;/h1H,(H,2,3);/q;+1/p-1",HLBBKKJFGFRGMU-UHFFFAOYSA-M,[Na+].[O-]C=O,0.8049
814,B-815,decamethyltetrasiloxane,"InChI=1S/C10H30O3Si4/c1-14(2,3)11-16(7,8)13-17(9,10)12-15(4,5)6/h1-10H3",YFCGDEUVHLPRCZ-UHFFFAOYSA-N,C[Si](C)(C)O[Si](C)(C)O[Si](C)(C)O[Si](C)(C)C,-7.6637
815,B-816,dicrotophos,"InChI=1S/C8H16NO5P/c1-7(6-8(10)9(2)3)14-15(11,12-4)13-5/h6H,1-5H3/b7-6+",VEENJGZXVHKXNB-VOTSOKGWSA-N,CO[P](=O)(OC)OC(/C)=C/C(=O)N(C)C,0.6249
816,B-817,3-iodopropionic acid,"InChI=1S/C3H5IO2/c4-2-1-3(5)6/h1-2H2,(H,5,6)",KMRNTNDWADEIIX-UHFFFAOYSA-N,OC(=O)CCI,-0.43
817,B-818,mesityl oxide,"InChI=1S/C6H10O/c1-5(2)4-6(3)7/h4H,1-3H3",SHOJXDKTYKFBRD-UHFFFAOYSA-N,CC(C)=CC(C)=O,-0.531
818,B-819,malonic acid,"InChI=1S/C3H4O4/c4-2(5)1-3(6)7/h1H2,(H,4,5)(H,6,7)",OFOBLEOULBTSOW-UHFFFAOYSA-N,OC(=O)CC(O)=O,0.8652
819,B-820,"4-thiazolidinone, 2-thioxo-","InChI=1S/C3H3NOS2/c5-2-1-7-3(6)4-2/h1H2,(H,4,5,6)",KIWUVOGUEXMXSV-UHFFFAOYSA-N,O=C1CSC(=S)N1,-1.7723
820,B-821,2-thiouracil,"InChI=1S/C4H4N2OS/c7-3-1-2-5-4(8)6-3/h1-2H,(H2,5,6,7,8)",ZEMGGZBWXRYJHK-UHFFFAOYSA-N,O=C1NC(=S)NC=C1,-2.2573
821,B-822,2-hydroxypyridine,"InChI=1S/C5H5NO/c7-5-3-1-2-4-6-5/h1-4H,(H,6,7)",UBQKCCHYAOITMY-UHFFFAOYSA-N,O=C1NC=CC=C1,1.0218
822,B-823,"acetamide, n-(2-hydroxyethyl)-","InChI=1S/C4H9NO2/c1-4(7)5-2-3-6/h6H,2-3H2,1H3,(H,5,7)",PVCJKHHOXFKFRP-UHFFFAOYSA-N,CC(=O)NCCO,0.9867
823,B-824,cyclopentene,"InChI=1S/C5H8/c1-2-4-5-3-1/h1-2H,3-5H2",LPIQUOYDBNQMRZ-UHFFFAOYSA-N,C1CC=CC1,-2.1049
824,B-825,"1,2-hydrazinecarbothioamide","InChI=1S/C2H6N4S2/c3-1(7)5-6-2(4)8/h(H3,3,5,7)(H3,4,6,8)",KCOYHFNCTWXETP-UHFFFAOYSA-N,NC(=S)NNC(N)=S,-1.7965
825,B-826,monosodium l-glutamate,"InChI=1S/C5H9NO4.Na/c6-3(5(9)10)1-2-4(7)8;/h3H,1-2,6H2,(H,7,8)(H,9,10);/q;+1/p-1",LPUQAYUQRXPFSQ-UHFFFAOYSA-M,[Na+].NC(CCC(O)=O)C([O-])=O,0.3573
826,B-827,nabam,"InChI=1S/C4H8N2S4.2Na/c7-3(8)5-1-2-6-4(9)10;;/h1-2H2,(H2,5,7,8)(H2,6,9,10);;/q;2*+1/p-2",UQJQVUOTMVCFHX-UHFFFAOYSA-L,[Na+].[Na+].[S-]C(=S)NCCNC([S-])=S,-0.1078
827,B-828,piperazine hydrochloride,"InChI=1S/C4H10N2.2ClH/c1-2-6-4-3-5-1;;/h5-6H,1-4H2;2*1H",CVVIJWRCGSYCMB-UHFFFAOYSA-N,[H+].[H+].[Cl-].[Cl-].C1CNCCN1,0.4112
828,B-829,n-hexyl acetate,"InChI=1S/C8H16O2/c1-3-4-5-6-7-10-8(2)9/h3-7H2,1-2H3",AOGQPLXWSUTHQB-UHFFFAOYSA-N,CCCCCCOC(C)=O,-2.451
829,B-830,dodecanoic acid,"InChI=1S/C12H24O2/c1-2-3-4-5-6-7-8-9-10-11-12(13)14/h2-11H2,1H3,(H,13,14)",POULHZVOKOAJMA-UHFFFAOYSA-N,CCCCCCCCCCCC(O)=O,-4.6196
830,B-831,"1-hexanamine, n-hexyl-","InChI=1S/C12H27N/c1-3-5-7-9-11-13-12-10-8-6-4-2/h13H,3-12H2,1-2H3",PXSXRABJBXYMFT-UHFFFAOYSA-N,CCCCCCNCCCCCC,-3.1574
831,B-832,triethylene glycol butyl ether,"InChI=1S/C10H22O4/c1-2-3-5-12-7-9-14-10-8-13-6-4-11/h11H,2-10H2,1H3",COBPKKZHLDDMTB-UHFFFAOYSA-N,CCCCOCCOCCOCCO,0.6855
832,B-833,kepone,"InChI=1S/C10Cl10O/c11-2-1(21)3(12)6(15)4(2,13)8(17)5(2,14)7(3,16)9(6,18)10(8,19)20",LHHGDZSESBACKH-UHFFFAOYSA-N,ClC1(Cl)C2(Cl)C3(Cl)C4(Cl)C(=O)C5(Cl)C3(Cl)C1(Cl)C5(Cl)C24Cl,-5.2594
833,B-834,butabarbital sodium,"InChI=1S/C10H16N2O3.Na/c1-4-6(3)10(5-2)7(13)11-9(15)12-8(10)14;/h6H,4-5H2,1-3H3,(H2,11,12,13,14,15);/q;+1/p-1",QORQZMBCPRBCAB-UHFFFAOYSA-M,[Na+].CCC(C)C1(CC)C(=O)NC(=O)[N-]C1=O,0.1528
834,B-835,"1,3-dioxolane-4,4-diacetic acid, 5-oxo-","InChI=1S/C7H8O7/c8-4(9)1-7(2-5(10)11)6(12)13-3-14-7/h1-3H2,(H,8,9)(H,10,11)",PXPMCAKTYKAROX-UHFFFAOYSA-N,OC(=O)CC1(CC(O)=O)OCOC1=O,-0.611
835,B-836,"2,2,4-trimethyl-1,3-pentanediol","InChI=1S/C8H18O2/c1-6(2)7(10)8(3,4)5-9/h6-7,9-10H,5H2,1-4H3",JCTXKRPTIMZBJT-UHFFFAOYSA-N,CC(C)C(O)C(C)(C)CO,-0.8863
836,B-837,dsma,"InChI=1S/CH5AsO3.2Na/c1-2(3,4)5;;/h1H3,(H2,3,4,5);;/q;2*+1/p-2",SDIXRDNYIMOKSG-UHFFFAOYSA-L,[Na+].[Na+].C[As]([O-])([O-])=O,0.3711
837,B-838,fluoroacetic acid,"InChI=1S/C2H3FO2/c3-1-2(4)5/h1H2,(H,4,5)",QEWYKACRFQMRMB-UHFFFAOYSA-N,OC(=O)CF,1.1077
838,B-839,oxalic acid,"InChI=1S/C2H2O4/c3-1(4)2(5)6/h(H,3,4)(H,5,6)",MUBZPKHOEPUJKR-UHFFFAOYSA-N,OC(=O)C(O)=O,0.38799999999999996
839,B-840,sulfapyridine,"InChI=1S/C11H11N3O2S/c12-9-4-6-10(7-5-9)17(15,16)14-11-3-1-2-8-13-11/h1-8H,12H2,(H,13,14)",GECHUMIMRBOMGK-UHFFFAOYSA-N,Nc1ccc(cc1)[S](=O)(=O)Nc2ccccn2,-2.9686
840,B-841,dl-allothreonine,"InChI=1S/C4H9NO3/c1-2(6)3(5)4(7)8/h2-3,6H,5H2,1H3,(H,7,8)",AYFVYJQAPQTCCC-UHFFFAOYSA-N,CC(O)C(N)C(O)=O,0.067
841,B-842,d-tartaric acid,"InChI=1S/C4H6O6/c5-1(3(7)8)2(6)4(9)10/h1-2,5-6H,(H,7,8)(H,9,10)/t1-,2-/m0/s1",FEWJPZIEWOKRBE-LWMBPPNESA-N,O[C@@H]([C@H](O)C(O)=O)C(O)=O,0.8236
842,B-843,meso-tartaric acid,"InChI=1S/C4H6O6/c5-1(3(7)8)2(6)4(9)10/h1-2,5-6H,(H,7,8)(H,9,10)",FEWJPZIEWOKRBE-UHFFFAOYSA-N,OC(C(O)C(O)=O)C(O)=O,0.5718
843,B-844,arabinose,"InChI=1S/C5H10O5/c6-2-1-10-5(9)4(8)3(2)7/h2-9H,1H2",SRBFZHDQGSBBOR-UHFFFAOYSA-N,OC1COC(O)C(O)C1O,0.5225
844,B-845,"benzamide, 2-methyl-3,5-dinitro-","InChI=1S/C8H7N3O5/c1-4-6(8(9)12)2-5(10(13)14)3-7(4)11(15)16/h2-3H,1H3,(H2,9,12)",ZEFNOZRLAWVAQF-UHFFFAOYSA-N,Cc1c(cc(cc1[N+]([O-])=O)[N+]([O-])=O)C(N)=O,-2.3525
845,B-846,flumethazide,"InChI=1S/C8H6F3N3O4S2/c9-8(10,11)4-1-5-7(2-6(4)19(12,15)16)20(17,18)14-3-13-5/h1-3H,(H,13,14)(H2,12,15,16)",RGUQWGXAYZNLMI-UHFFFAOYSA-N,N[S](=O)(=O)c1cc2c(NC=N[S]2(=O)=O)cc1C(F)(F)F,-0.8186
846,B-847,thiabendazole,"InChI=1S/C10H7N3S/c1-2-4-8-7(3-1)12-10(13-8)9-5-14-6-11-9/h1-6H,(H,12,13)",WJCNZQLZVWNLKY-UHFFFAOYSA-N,[nH]1c2ccccc2nc1c3cscn3,-3.6048
847,B-848,"2,4-des","InChI=1S/C8H8Cl2O5S/c9-6-1-2-8(7(10)5-6)14-3-4-15-16(11,12)13/h1-2,5H,3-4H2,(H,11,12,13)",HJEINPVZRDJRBY-UHFFFAOYSA-N,O[S](=O)(=O)OCCOc1ccc(Cl)cc1Cl,-0.0601
848,B-849,"3,4,5-trihydroxybenzoic acid","InChI=1S/C7H6O5/c8-4-1-3(7(11)12)2-5(9)6(4)10/h1-2,8-10H,(H,11,12)",LNTHITQWFMADLM-UHFFFAOYSA-N,OC(=O)c1cc(O)c(O)c(O)c1,-1.1552
849,B-850,dulcin,"InChI=1S/C9H12N2O2/c1-2-13-8-5-3-7(4-6-8)11-9(10)12/h3-6H,2H2,1H3,(H3,10,11,12)",GGLIEWRLXDLBBF-UHFFFAOYSA-N,CCOc1ccc(NC(N)=O)cc1,-2.173
850,B-851,sodium succinate,"InChI=1S/C4H6O4.2Na/c5-3(6)1-2-4(7)8;;/h1-2H2,(H,5,6)(H,7,8);;/q;2*+1/p-2",ZDQYSKICYIVCPN-UHFFFAOYSA-L,[Na+].[Na+].[O-]C(=O)CCC([O-])=O,0.0914
851,B-852,potassium cyanide,InChI=1S/CN.K/c1-2;/q-1;+1,NNFCIKHAZHQZJG-UHFFFAOYSA-N,[K+].[C-]#N,1.0436
852,B-853,aziridine,"InChI=1S/C2H5N/c1-2-3-1/h3H,1-2H2",NOWKCMXCCJGMRR-UHFFFAOYSA-N,C1CN1,1.3658
853,B-854,octamethylpyrophosphoramide,"InChI=1S/C8H24N4O3P2/c1-9(2)16(13,10(3)4)15-17(14,11(5)6)12(7)8/h1-8H3",SZKKRCSOSQAJDE-UHFFFAOYSA-N,CN(C)[P](=O)(O[P](=O)(N(C)C)N(C)C)N(C)C,0.5433
854,B-855,vicine,"InChI=1S/C10H16N4O7/c11-7-6(8(19)14-10(12)13-7)21-9-5(18)4(17)3(16)2(1-15)20-9/h2-5,9,15-18H,1H2,(H5,11,12,13,14,19)/t2-,3-,4+,5-,9+/m1/s1",KGNGTSCIQCLKEH-SYCVNHKBSA-N,NC1=NC(=O)C(=C(N)N1)O[C@@H]2O[C@H](CO)[C@@H](O)[C@H](O)[C@H]2O,-1.4832
855,B-856,"1,3-bis(2-chloroet)-1-nitrosourea","InChI=1S/C5H9Cl2N3O2/c6-1-3-8-5(11)10(9-12)4-2-7/h1-4H2,(H,8,11)",DLGOEMSEDOSKAD-UHFFFAOYSA-N,ClCCNC(=O)N(CCCl)N=O,-1.7285
856,B-857,p-hydroxyphenylacetic acid,"InChI=1S/C8H8O3/c9-7-3-1-6(2-4-7)5-8(10)11/h1-4,9H,5H2,(H,10,11)",XQXPVVBIMDBYFF-UHFFFAOYSA-N,OC(=O)Cc1ccc(O)cc1,-0.3991
857,B-858,"1,6-dioxaspiro[4,4]nonane",InChI=1S/C7H12O2/c1-3-7(8-5-1)4-2-6-9-7/h1-6H2,YVSCOIUNVKGTND-UHFFFAOYSA-N,C1COC2(C1)CCCO2,-0.1078
858,B-859,coronene,InChI=1S/C24H12/c1-2-14-5-6-16-9-11-18-12-10-17-8-7-15-4-3-13(1)19-20(14)22(16)24(18)23(17)21(15)19/h1-12H,VPUGDVKSAQVFFS-UHFFFAOYSA-N,c1cc2ccc3ccc4ccc5ccc6ccc1c7c2c3c4c5c67,-9.3315
859,B-860,benzo(e)pyrene,InChI=1S/C20H12/c1-2-8-16-15(7-1)17-9-3-5-13-11-12-14-6-4-10-18(16)20(14)19(13)17/h1-12H,TXVHTIQJNYSSKO-UHFFFAOYSA-N,c1ccc2c(c1)c3cccc4ccc5cccc2c5c34,-7.6026
860,B-861,"indeno(1,2,3-cd)pyrene",InChI=1S/C22H12/c1-2-7-17-16(6-1)18-11-10-14-9-8-13-4-3-5-15-12-19(17)22(18)21(14)20(13)15/h1-12H,SXQBHARYMNFBPS-UHFFFAOYSA-N,c1ccc2c(c1)c3ccc4ccc5cccc6cc2c3c4c56,-9.1627
861,B-862,"7h-dibenzo(c,g)carbazole","InChI=1S/C20H13N/c1-3-7-15-13(5-1)9-11-17-19(15)20-16-8-4-2-6-14(16)10-12-18(20)21-17/h1-12,21H",STJXCDGCXVZHDU-UHFFFAOYSA-N,[nH]1c2ccc3ccccc3c2c4c1ccc5ccccc45,-6.6277
862,B-863,benzo(c)phenanthrene,InChI=1S/C18H12/c1-3-7-16-13(5-1)9-11-15-12-10-14-6-2-4-8-17(14)18(15)16/h1-12H,TUAHORSUHVUKBD-UHFFFAOYSA-N,c1ccc2c(c1)ccc3ccc4ccccc4c23,-7.8207
863,B-864,"benz(a,j)aceanthrylene",InChI=1S/C24H14/c1-2-8-17-15(6-1)12-13-21-22(17)14-16-7-5-11-19-18-9-3-4-10-20(18)24(21)23(16)19/h1-14H,ZUAGUFSITPHNKC-UHFFFAOYSA-N,c1ccc2c(c1)ccc3c2cc4cccc5c6ccccc6c3c45,-8.4806
864,B-865,"4,5-methylenephenanthrene","InChI=1S/C15H10/c1-3-10-7-8-11-4-2-6-13-9-12(5-1)14(10)15(11)13/h1-8H,9H2",RKZDZWJDQTZDLD-UHFFFAOYSA-N,C1c2cccc3ccc4cccc1c4c23,-5.2379
865,B-866,benzo(j)fluoranthene,InChI=1S/C20H12/c1-2-8-15-13(5-1)11-12-17-16-9-3-6-14-7-4-10-18(19(14)16)20(15)17/h1-12H,KHNYNFUTFKJLDD-UHFFFAOYSA-N,c1ccc2c(c1)ccc3c4cccc5cccc(c45)c23,-8.004
866,B-867,benzo(b)fluoranthene,InChI=1S/C20H12/c1-2-7-14-13(6-1)12-19-16-9-4-3-8-15(16)18-11-5-10-17(14)20(18)19/h1-12H,FTOVXSOBNPWTSH-UHFFFAOYSA-N,c1ccc2c(c1)cc3c4ccccc4c5cccc2c35,-8.2259
867,B-868,benzo(k)fluoranthene,InChI=1S/C20H12/c1-2-6-15-12-19-17-10-4-8-13-7-3-9-16(20(13)17)18(19)11-14(15)5-1/h1-12H,HAXBIWFMXWRORI-UHFFFAOYSA-N,c1ccc2cc3c4cccc5cccc(c3cc2c1)c45,-8.4989
868,B-869,picene,InChI=1S/C22H14/c1-3-7-17-15(5-1)9-11-21-19(17)13-14-20-18-8-4-2-6-16(18)10-12-22(20)21/h1-14H,GBROPGWFBFCKAG-UHFFFAOYSA-N,c1ccc2c(c1)ccc3c2ccc4c5ccccc5ccc34,-7.8097
869,B-870,"14h-dibenzo[a,j]phenothiazine","InChI=1S/C20H13NS/c1-3-7-15-13(5-1)9-11-17-19(15)21-20-16-8-4-2-6-14(16)10-12-18(20)22-17/h1-12,21H",FCTDXVQYLPZTNX-UHFFFAOYSA-N,N1c2c(Sc3ccc4ccccc4c13)ccc5ccccc25,-7.9081