,ID,Name,InChI,InChIKey,SMILES,Solubility
4125,B-4126,"2,2',3',4,5-pentachlorobiphenyl",InChI=1S/C12H5Cl5/c13-8-3-1-2-6(12(8)17)7-4-10(15)11(16)5-9(7)14/h1-5H,JTUSORDQZVOEAZ-UHFFFAOYSA-N,Clc1cccc(c1Cl)c2cc(Cl)c(Cl)cc2Cl,-7.0605
4126,B-4127,"2,2',3,4-tetrachlorobiphenyl",InChI=1S/C12H6Cl4/c13-9-4-2-1-3-7(9)8-5-6-10(14)12(16)11(8)15/h1-6H,SEWHDNLIHDBVDZ-UHFFFAOYSA-N,Clc1ccc(c(Cl)c1Cl)c2ccccc2Cl,-6.8299
4127,B-4128,"2,2',3,5,5'-pentachlorobiphenyl",InChI=1S/C12H5Cl5/c13-6-1-2-10(15)8(3-6)9-4-7(14)5-11(16)12(9)17/h1-5H,CRCBRZBVCDKPGA-UHFFFAOYSA-N,Clc1ccc(Cl)c(c1)c2cc(Cl)cc(Cl)c2Cl,-7.8201
4128,B-4129,"2,2',3,3',5,6'-hexachlorobiphenyl",InChI=1S/C12H4Cl6/c13-5-3-6(11(17)9(16)4-5)10-7(14)1-2-8(15)12(10)18/h1-4H,UUTNFLRSJBQQJM-UHFFFAOYSA-N,Clc1cc(Cl)c(Cl)c(c1)c2c(Cl)ccc(Cl)c2Cl,-7.8218
4129,B-4130,"2,2',3,3',4,5-hexachlorobiphenyl",InChI=1S/C12H4Cl6/c13-7-3-1-2-5(9(7)15)6-4-8(14)11(17)12(18)10(6)16/h1-4H,VQQKIXKPMJTUMP-UHFFFAOYSA-N,Clc1cccc(c1Cl)c2cc(Cl)c(Cl)c(Cl)c2Cl,-8.4206
4130,B-4131,benzamide,"InChI=1S/C7H7NO/c8-7(9)6-4-2-1-3-5-6/h1-5H,(H2,8,9)",KXDAEFPNCMNJSK-UHFFFAOYSA-N,NC(=O)c1ccccc1,-0.953
4131,B-4132,"2-methyl-1,4-naphthoquinone","InChI=1S/C11H8O2/c1-7-6-10(12)8-4-2-3-5-9(8)11(7)13/h2-6H,1H3",MJVAVZPDRWSRRC-UHFFFAOYSA-N,CC1=CC(=O)c2ccccc2C1=O,-3.0319
4132,B-4133,tolbutamide,"InChI=1S/C12H18N2O3S/c1-3-4-9-13-12(15)14-18(16,17)11-7-5-10(2)6-8-11/h5-8H,3-4,9H2,1-2H3,(H2,13,14,15)",JLRGJRBPOGGCBT-UHFFFAOYSA-N,CCCCNC(=O)N[S](=O)(=O)c1ccc(C)cc1,-3.3945
4133,B-4134,p-terphenyl,InChI=1S/C18H14/c1-3-7-15(8-4-1)17-11-13-18(14-12-17)16-9-5-2-6-10-16/h1-14H,XJKSTNDFUHDPQJ-UHFFFAOYSA-N,c1ccc(cc1)c2ccc(cc2)c3ccccc3,-7.107
4134,B-4135,benzotrifluoride,"InChI=1S/C7H5F3/c8-7(9,10)6-4-2-1-3-5-6/h1-5H",GETTZEONDQJALK-UHFFFAOYSA-N,FC(F)(F)c1ccccc1,-3.0186
4135,B-4136,alpha-chlorotoluene,"InChI=1S/C7H7Cl/c8-6-7-4-2-1-3-5-7/h1-5H,6H2",KCXMKQUNVWSEMD-UHFFFAOYSA-N,ClCc1ccccc1,-2.3822
4136,B-4137,anisole,"InChI=1S/C7H8O/c1-8-7-5-3-2-4-6-7/h2-6H,1H3",RDOXTESZEPMUJZ-UHFFFAOYSA-N,COc1ccccc1,-2.017
4137,B-4138,thioanisole,"InChI=1S/C7H8S/c1-8-7-5-3-2-4-6-7/h2-6H,1H3",HNKJADCVZUBCPG-UHFFFAOYSA-N,CSc1ccccc1,-2.39
4138,B-4139,diphenyl ether,InChI=1S/C12H10O/c1-3-7-11(8-4-1)13-12-9-5-2-6-10-12/h1-10H,USIUVYZYUHIAEV-UHFFFAOYSA-N,O(c1ccccc1)c2ccccc2,-3.9757
4139,B-4140,formanilide,"InChI=1S/C7H7NO/c9-6-8-7-4-2-1-3-5-7/h1-6H,(H,8,9)",DYDNPESBYVVLBO-UHFFFAOYSA-N,O=CNc1ccccc1,-0.6785
4140,B-4141,phenylisothiocyanate,InChI=1S/C7H5NS/c9-6-8-7-4-2-1-3-5-7/h1-5H,QKFJKGMPGYROCL-UHFFFAOYSA-N,S=C=Nc1ccccc1,-3.1772
4141,B-4142,ethoxybenzene,"InChI=1S/C8H10O/c1-2-9-8-6-4-3-5-7-8/h3-7H,2H2,1H3",DLRJIFUOBPOJNS-UHFFFAOYSA-N,CCOc1ccccc1,-2.3319
4142,B-4143,acetanilide,"InChI=1S/C8H9NO/c1-7(10)9-8-5-3-2-4-6-8/h2-6H,1H3,(H,9,10)",FZERHIULMFGESH-UHFFFAOYSA-N,CC(=O)Nc1ccccc1,-1.2901
4143,B-4144,2-chloroacetanilide,"InChI=1S/C8H8ClNO/c1-6(11)10-8-5-3-2-4-7(8)9/h2-5H,1H3,(H,10,11)",KNVQTRVKSOEHPU-UHFFFAOYSA-N,CC(=O)Nc1ccccc1Cl,-1.4001
4144,B-4145,3-methylacetanilide,"InChI=1S/C9H11NO/c1-7-4-3-5-9(6-7)10-8(2)11/h3-6H,1-2H3,(H,10,11)",ALMHSXDYCFOZQD-UHFFFAOYSA-N,CC(=O)Nc1cccc(C)c1,-2.0909999999999997
4145,B-4146,2-nitroacetanilide,"InChI=1S/C8H8N2O3/c1-6(11)9-7-4-2-3-5-8(7)10(12)13/h2-5H,1H3,(H,9,11)",BUNFNRVLMKHKIT-UHFFFAOYSA-N,CC(=O)Nc1ccccc1[N+]([O-])=O,-1.9093
4146,B-4147,benzylisothiocyanate,"InChI=1S/C8H7NS/c10-7-9-6-8-4-2-1-3-5-8/h1-5H,6H2",MDKCFLQDBWCQCV-UHFFFAOYSA-N,S=C=NCc1ccccc1,-3.1364
4147,B-4148,"5,6,7,8-tetrahydro-2-naphthol","InChI=1S/C10H12O/c11-10-6-5-8-3-1-2-4-9(8)7-10/h5-7,11H,1-4H2",UMKXSOXZAXIOPJ-UHFFFAOYSA-N,Oc1ccc2CCCCc2c1,-1.9948
4148,B-4149,"2,6-dichlorobenzamide","InChI=1S/C7H5Cl2NO/c8-4-2-1-3-5(9)6(4)7(10)11/h1-3H,(H2,10,11)",JHSPCUHPSIUQRB-UHFFFAOYSA-N,NC(=O)c1c(Cl)cccc1Cl,-1.8427
4149,B-4150,3-methyl-4'-nitrodiphenyl ether,"InChI=1S/C13H11NO3/c1-10-3-2-4-13(9-10)17-12-7-5-11(6-8-12)14(15)16/h2-9H,1H3",DLKBRTKDSDXWNA-UHFFFAOYSA-N,Cc1cccc(Oc2ccc(cc2)[N+]([O-])=O)c1,-4.6613
4150,B-4151,n-(ethylaminomethyl)benzamide,"InChI=1S/C10H14N2O/c1-2-11-8-12-10(13)9-6-4-3-5-7-9/h3-7,11H,2,8H2,1H3,(H,12,13)",MUDXIWKFOCILIO-UHFFFAOYSA-N,CCNCNC(=O)c1ccccc1,-0.0749
4151,B-4152,phenylpropylmethylamine,"InChI=1S/C10H15N/c1-9(8-11-2)10-6-4-3-5-7-10/h3-7,9,11H,8H2,1-2H3",AUFSOOYCQYDGES-UHFFFAOYSA-N,CNCC(C)c1ccccc1,-1.0947
4152,B-4153,n-nitrosopiperidine,InChI=1S/C5H10N2O/c8-6-7-4-2-1-3-5-7/h1-5H2,UWSDONTXWQOZFN-UHFFFAOYSA-N,O=NN1CCCCC1,-0.1738
4153,B-4154,azobenzene,InChI=1S/C12H10N2/c1-3-7-11(8-4-1)13-14-12-9-5-2-6-10-12/h1-10H,DMLAVOWQYNRWNQ-UHFFFAOYSA-N,c1ccc(cc1)N=Nc2ccccc2,-4.4544
4154,B-4155,cocaine,"InChI=1S/C17H21NO4/c1-18-12-8-9-13(18)15(17(20)21-2)14(10-12)22-16(19)11-6-4-3-5-7-11/h3-7,12-15H,8-10H2,1-2H3/t12?,13?,14-,15+/m0/s1",ZPUCINDJVBIVPJ-PFSRBDOWSA-N,COC(=O)[C@H]1[C@H](CC2CCC1N2C)OC(=O)c3ccccc3,-2.2267
4155,B-4156,imipramine,"InChI=1S/C19H24N2/c1-20(2)14-7-15-21-18-10-5-3-8-16(18)12-13-17-9-4-6-11-19(17)21/h3-6,8-11H,7,12-15H2,1-2H3",BCGWQEUPMDMJNV-UHFFFAOYSA-N,CN(C)CCCN1c2ccccc2CCc3ccccc13,-4.187
4156,B-4157,rh-2485,"InChI=1S/C17H19ClN2S/c1-19(2)10-5-11-20-14-6-3-4-7-16(14)21-17-9-8-13(18)12-15(17)20/h3-4,6-9,12H,5,10-11H2,1-2H3",ZPEIMTDSQAKGNT-UHFFFAOYSA-N,CN(C)CCCN1c2ccccc2Sc3ccc(Cl)cc13,-5.0971
4157,B-4158,atropine,"InChI=1S/C17H23NO3/c1-18-13-7-8-14(18)10-15(9-13)21-17(20)16(11-19)12-5-3-2-4-6-12/h2-6,13-16,19H,7-11H2,1H3",RKUNBYITZUJHSG-UHFFFAOYSA-N,CN1C2CCC1CC(C2)OC(=O)C(CO)c3ccccc3,-2.119
4158,B-4159,procaine,"InChI=1S/C13H20N2O2/c1-3-15(4-2)9-10-17-13(16)11-5-7-12(14)8-6-11/h5-8H,3-4,9-10,14H2,1-2H3",MFDFERRIHVXMIY-UHFFFAOYSA-N,CCN(CC)CCOC(=O)c1ccc(N)cc1,-1.3979
4159,B-4160,lidocaine,"InChI=1S/C14H22N2O/c1-5-16(6-2)10-13(17)15-14-11(3)8-7-9-12(14)4/h7-9H,5-6,10H2,1-4H3,(H,15,17)",NNJVILVZKWQKPM-UHFFFAOYSA-N,CCN(CC)CC(=O)Nc1c(C)cccc1C,-1.7571
4160,B-4161,triethyl phosphate,"InChI=1S/C6H15O4P/c1-4-8-11(7,9-5-2)10-6-3/h4-6H2,1-3H3",DQWPFSLDHJDLRL-UHFFFAOYSA-N,CCO[P](=O)(OCC)OCC,0.4385
4161,B-4162,triphenylphosphate,"InChI=1S/C18H15O4P/c19-23(20-16-10-4-1-5-11-16,21-17-12-6-2-7-13-17)22-18-14-8-3-9-15-18/h1-15H",XZZNDPSIHUTMOC-UHFFFAOYSA-N,O=[P](Oc1ccccc1)(Oc2ccccc2)Oc3ccccc3,-5.2349
4162,B-4163,tributylphosphate,"InChI=1S/C12H27O4P/c1-4-7-10-14-17(13,15-11-8-5-2)16-12-9-6-3/h4-12H2,1-3H3",STCOOQWBFONSKY-UHFFFAOYSA-N,CCCCO[P](=O)(OCCCC)OCCCC,-2.9782
4163,B-4164,trimethyl phosphate,"InChI=1S/C3H9O4P/c1-5-8(4,6-2)7-3/h1-3H3",WVLBCYQITXONBZ-UHFFFAOYSA-N,CO[P](=O)(OC)OC,0.5526
4164,B-4165,diisopropyl methylphosphonate,"InChI=1S/C7H17O3P/c1-6(2)9-11(5,8)10-7(3)4/h6-7H,1-5H3",WOAFDHWYKSOANX-UHFFFAOYSA-N,CC(C)O[P](C)(=O)OC(C)C,-0.0516
4165,B-4166,urea,"InChI=1S/CH4N2O/c2-1(3)4/h(H4,2,3,4)",XSQUKJJJFZCRTK-UHFFFAOYSA-N,NC(N)=O,0.9578
4166,B-4167,benzylurea,"InChI=1S/C8H10N2O/c9-8(11)10-6-7-4-2-1-3-5-7/h1-5H,6H2,(H3,9,10,11)",RJNJWHFSKNJCTB-UHFFFAOYSA-N,NC(=O)NCc1ccccc1,-0.9462
4167,B-4168,4-methylbenzenesulfonamide,"InChI=1S/C7H9NO2S/c1-6-2-4-7(5-3-6)11(8,9)10/h2-5H,1H3,(H2,8,9,10)",LMYRWZFENFIFIT-UHFFFAOYSA-N,Cc1ccc(cc1)[S](N)(=O)=O,-1.7344
4168,B-4169,o-methylbenzenesulfonamide,"InChI=1S/C7H9NO2S/c1-6-4-2-3-5-7(6)11(8,9)10/h2-5H,1H3,(H2,8,9,10)",YCMLQMDWSXFTIF-UHFFFAOYSA-N,Cc1ccccc1[S](N)(=O)=O,-2.024
4169,B-4170,benzenesulfonamide,"InChI=1S/C6H7NO2S/c7-10(8,9)6-4-2-1-3-5-6/h1-5H,(H2,7,8,9)",KHBQMWCZKVMBLN-UHFFFAOYSA-N,N[S](=O)(=O)c1ccccc1,-1.5630000000000002
4170,B-4171,m-methylbenzenesulfonamide,"InChI=1S/C7H9NO2S/c1-6-3-2-4-7(5-6)11(8,9)10/h2-5H,1H3,(H2,8,9,10)",NVZINPVISUVPHW-UHFFFAOYSA-N,Cc1cccc(c1)[S](N)(=O)=O,-1.3409
4171,B-4172,cyclophosphamide,"InChI=1S/C7H15Cl2N2O2P/c8-2-5-11(6-3-9)14(12)10-4-1-7-13-14/h1-7H2,(H,10,12)",CMSMOCZEIVJLDB-UHFFFAOYSA-N,ClCCN(CCCl)[P]1(=O)NCCCO1,-0.8147
4172,B-4173,"p,p'-ddt","InChI=1S/C14H9Cl5/c15-11-5-1-9(2-6-11)13(14(17,18)19)10-3-7-12(16)8-4-10/h1-8,13H",YVGGHNCTFXOJCH-UHFFFAOYSA-N,Clc1ccc(cc1)C(c2ccc(Cl)cc2)C(Cl)(Cl)Cl,-7.8092
4173,B-4174,fenthion,"InChI=1S/C10H15O3PS2/c1-8-7-9(5-6-10(8)16-4)13-14(15,11-2)12-3/h5-7H,1-4H3",PNVJTZOFSHSLTO-UHFFFAOYSA-N,CO[P](=S)(OC)Oc1ccc(SC)c(C)c1,-4.5695
4174,B-4175,parathion,"InChI=1S/C10H14NO5PS/c1-3-14-17(18,15-4-2)16-10-7-5-9(6-8-10)11(12)13/h5-8H,3-4H2,1-2H3",LCCNCVORNKJIRZ-UHFFFAOYSA-N,CCO[P](=S)(OCC)Oc1ccc(cc1)[N+]([O-])=O,-4.0841
4175,B-4176,dimethoate,"InChI=1S/C5H12NO3PS2/c1-6-5(7)4-12-10(11,8-2)9-3/h4H2,1-3H3,(H,6,7)",MCWXGJITAZMZEV-UHFFFAOYSA-N,CNC(=O)CS[P](=S)(OC)OC,-0.9624
4176,B-4177,1-naphthyl-n-methylcarbamate,"InChI=1S/C12H11NO2/c1-13-12(14)15-11-8-4-6-9-5-2-3-7-10(9)11/h2-8H,1H3,(H,13,14)",CVXBEEMKQHEXEN-UHFFFAOYSA-N,CNC(=O)Oc1cccc2ccccc12,-3.3867
4177,B-4178,"p,p'-ddd","InChI=1S/C14H10Cl4/c15-11-5-1-9(2-6-11)13(14(17)18)10-3-7-12(16)8-4-10/h1-8,13-14H",AHJKRLASYNVKDZ-UHFFFAOYSA-N,ClC(Cl)C(c1ccc(Cl)cc1)c2ccc(Cl)cc2,-6.551
4178,B-4179,"p,p'-dde",InChI=1S/C14H8Cl4/c15-11-5-1-9(2-6-11)13(14(17)18)10-3-7-12(16)8-4-10/h1-8H,UCNVFOCBFJOQAL-UHFFFAOYSA-N,Clc1ccc(cc1)C(=C(Cl)Cl)c2ccc(Cl)cc2,-6.9004
4179,B-4180,Tribufos,"InChI=1S/C12H27OPS3/c1-4-7-10-15-14(13,16-11-8-5-2)17-12-9-6-3/h4-12H2,1-3H3",ZOKXUAHZSKEQSS-UHFFFAOYSA-N,CCCCS[P](=O)(SCCCC)SCCCC,-5.6343
4180,B-4181,mecoprop,"InChI=1S/C10H11ClO3/c1-6-5-8(11)3-4-9(6)14-7(2)10(12)13/h3-5,7H,1-2H3,(H,12,13)",WNTGYJSOUMFZEP-UHFFFAOYSA-N,CC(Oc1ccc(Cl)cc1C)C(O)=O,-2.5393
4181,B-4182,silvex,"InChI=1S/C9H7Cl3O3/c1-4(9(13)14)15-8-3-6(11)5(10)2-7(8)12/h2-4H,1H3,(H,13,14)",ZLSWBLPERHFHIS-UHFFFAOYSA-N,CC(Oc1cc(Cl)c(Cl)cc1Cl)C(O)=O,-3.5793
4182,B-4183,"2,4,5-trichlorophenoxyacetic acid","InChI=1S/C8H5Cl3O3/c9-4-1-6(11)7(2-5(4)10)14-3-8(12)13/h1-2H,3H2,(H,12,13)",SMYMJHWAQXWPDB-UHFFFAOYSA-N,OC(=O)COc1cc(Cl)c(Cl)cc1Cl,-2.9633
4183,B-4184,"2,4-dichlorophenoxyacetic acid","InChI=1S/C8H6Cl2O3/c9-5-1-2-7(6(10)3-5)13-4-8(11)12/h1-3H,4H2,(H,11,12)",OVSKIKFHRZPJSS-UHFFFAOYSA-N,OC(=O)COc1ccc(Cl)cc1Cl,-2.5139
4184,B-4185,"2,4-db","InChI=1S/C10H10Cl2O3/c11-7-3-4-9(8(12)6-7)15-5-1-2-10(13)14/h3-4,6H,1-2,5H2,(H,13,14)",YIVXMZJTEQBPQO-UHFFFAOYSA-N,OC(=O)CCCOc1ccc(Cl)cc1Cl,-3.6721
4185,B-4186,dichlofenthion,"InChI=1S/C10H13Cl2O3PS/c1-3-13-16(17,14-4-2)15-10-6-5-8(11)7-9(10)12/h5-7H,3-4H2,1-2H3",WGOWCPGHOCIHBW-UHFFFAOYSA-N,CCO[P](=S)(OCC)Oc1ccc(Cl)cc1Cl,-6.1094
4186,B-4187,chlorpropham,"InChI=1S/C10H12ClNO2/c1-7(2)14-10(13)12-9-5-3-4-8(11)6-9/h3-7H,1-2H3,(H,12,13)",CWJSHJJYOPWUGX-UHFFFAOYSA-N,CC(C)OC(=O)Nc1cccc(Cl)c1,-3.3804
4187,B-4188,fenuron,"InChI=1S/C9H12N2O/c1-11(2)9(12)10-8-6-4-3-5-7-8/h3-7H,1-2H3,(H,10,12)",XXOYNJXVWVNOOJ-UHFFFAOYSA-N,CN(C)C(=O)Nc1ccccc1,-1.6101
4188,B-4189,"dcip  (2,2'-oxybis-1-chloropropane)","InChI=1S/C6H12Cl2O/c1-5(3-7)9-6(2)4-8/h5-6H,3-4H2,1-2H3",QCFYJCYNJLBDRT-UHFFFAOYSA-N,CC(CCl)OC(C)CCl,-2.0027
4189,B-4190,dicofol,"InChI=1S/C14H9Cl5O/c15-11-5-1-9(2-6-11)13(20,14(17,18)19)10-3-7-12(16)8-4-10/h1-8,20H",UOAMTSKGCBMZTC-UHFFFAOYSA-N,OC(c1ccc(Cl)cc1)(c2ccc(Cl)cc2)C(Cl)(Cl)Cl,-5.6657
4190,B-4191,fensulfothion,"InChI=1S/C11H17O4PS2/c1-4-13-16(17,14-5-2)15-10-6-8-11(9-7-10)18(3)12/h6-9H,4-5H2,1-3H3",XDNBJTQLKCIJBV-UHFFFAOYSA-N,CCO[P](=S)(OCC)Oc1ccc(cc1)[S](C)=O,-2.188
4191,B-4192,dichlorprop,"InChI=1S/C9H8Cl2O3/c1-5(9(12)13)14-8-3-2-6(10)4-7(8)11/h2-5H,1H3,(H,12,13)",MZHCENGPTKEIGP-UHFFFAOYSA-N,CC(Oc1ccc(Cl)cc1Cl)C(O)=O,-2.8271
4192,B-4193,malathion,"InChI=1S/C10H19O6PS2/c1-5-15-9(11)7-8(10(12)16-6-2)19-17(18,13-3)14-4/h8H,5-7H2,1-4H3",JXSJBGJIGXNWCI-UHFFFAOYSA-N,CCOC(=O)CC(S[P](=S)(OC)OC)C(=O)OCC,-3.3637
4193,B-4194,fenitrothion,"InChI=1S/C9H12NO5PS/c1-7-6-8(4-5-9(7)10(11)12)15-16(17,13-2)14-3/h4-6H,1-3H3",ZNOLGFHPUIJIMJ-UHFFFAOYSA-N,CO[P](=S)(OC)Oc1ccc(c(C)c1)[N+]([O-])=O,-3.8631
4194,B-4195,isopropyl phenyl carbamate,"InChI=1S/C10H13NO2/c1-8(2)13-10(12)11-9-6-4-3-5-7-9/h3-8H,1-2H3,(H,11,12)",VXPLXMJHHKHSOA-UHFFFAOYSA-N,CC(C)OC(=O)Nc1ccccc1,-3.0005
4195,B-4196,monuron,"InChI=1S/C9H11ClN2O/c1-12(2)9(13)11-8-5-3-7(10)4-6-8/h3-6H,1-2H3,(H,11,13)",BMLIZLVNXIYGCK-UHFFFAOYSA-N,CN(C)C(=O)Nc1ccc(Cl)cc1,-2.9364
4196,B-4197,parathion methyl,"InChI=1S/C8H10NO5PS/c1-12-15(16,13-2)14-8-5-3-7(4-6-8)9(10)11/h3-6H,1-2H3",RLBIQVVOMOPOHC-UHFFFAOYSA-N,CO[P](=S)(OC)Oc1ccc(cc1)[N+]([O-])=O,-3.844
4197,B-4198,phorate,"InChI=1S/C7H17O2PS3/c1-4-8-10(11,9-5-2)13-7-12-6-3/h4-7H2,1-3H3",BULVZWIRKLYCBC-UHFFFAOYSA-N,CCO[P](=S)(OCC)SCSCC,-3.7166
4198,B-4199,disulfoton,"InChI=1S/C8H19O2PS3/c1-4-9-11(12,10-5-2)14-8-7-13-6-3/h4-8H2,1-3H3",DOFZAZXDOSGAJZ-UHFFFAOYSA-N,CCO[P](=S)(OCC)SCCSCC,-4.2262
4199,B-4200,ronnel,"InChI=1S/C8H8Cl3O3PS/c1-12-15(16,13-2)14-8-4-6(10)5(9)3-7(8)11/h3-4H,1-2H3",JHJOOSLFWRRSGU-UHFFFAOYSA-N,CO[P](=S)(OC)Oc1cc(Cl)c(Cl)cc1Cl,-5.5072
4200,B-4201,dmpa,"InChI=1S/C10H14Cl2NO2PS/c1-7(2)13-16(17,14-3)15-10-5-4-8(11)6-9(10)12/h4-7H,1-3H3,(H,13,17)",PJFGPJQBWSEWKX-UHFFFAOYSA-N,CO[P](=S)(NC(C)C)Oc1ccc(Cl)cc1Cl,-4.7982
4201,B-4202,crufomate,"InChI=1S/C12H19ClNO3P/c1-12(2,3)9-6-7-11(10(13)8-9)17-18(15,14-4)16-5/h6-8H,1-5H3,(H,14,15)",BOFHKBLZOYVHSI-UHFFFAOYSA-N,CN[P](=O)(OC)Oc1ccc(cc1Cl)C(C)(C)C,-3.1639
4202,B-4203,naled,"InChI=1S/C4H7Br2Cl2O4P/c1-10-13(9,11-2)12-3(5)4(6,7)8/h3H,1-2H3",BUYMVQAILCEWRR-UHFFFAOYSA-N,CO[P](=O)(OC)OC(Br)C(Cl)(Cl)Br,-2.2797
4203,B-4204,paraoxon,"InChI=1S/C10H14NO6P/c1-3-15-18(14,16-4-2)17-10-7-5-9(6-8-10)11(12)13/h5-8H,3-4H2,1-2H3",WYMSBXTXOHUIGT-UHFFFAOYSA-N,CCO[P](=O)(OCC)Oc1ccc(cc1)[N+]([O-])=O,-2.0594
4204,B-4205,trichloronate,"InChI=1S/C10H12Cl3O2PS/c1-3-14-16(17,4-2)15-10-6-8(12)7(11)5-9(10)13/h5-6H,3-4H2,1-2H3",ANIAQSUBRGXWLS-UHFFFAOYSA-N,CCO[P](=S)(CC)Oc1cc(Cl)c(Cl)cc1Cl,-5.7524
4205,B-4206,diuron,"InChI=1S/C9H10Cl2N2O/c1-13(2)9(14)12-6-3-4-7(10)8(11)5-6/h3-5H,1-2H3,(H,12,14)",XMTQQYYKAHVGBJ-UHFFFAOYSA-N,CN(C)C(=O)Nc1ccc(Cl)c(Cl)c1,-3.7443
4206,B-4207,linuron,"InChI=1S/C9H10Cl2N2O2/c1-13(15-2)9(14)12-6-3-4-7(10)8(11)5-6/h3-5H,1-2H3,(H,12,14)",XKJMBINCVNINCA-UHFFFAOYSA-N,CON(C)C(=O)Nc1ccc(Cl)c(Cl)c1,-3.5213
4207,B-4208,chlorfenvinphos,"InChI=1S/C12H14Cl3O4P/c1-3-17-20(16,18-4-2)19-12(8-13)10-6-5-9(14)7-11(10)15/h5-8H,3-4H2,1-2H3/b12-8-",FSAVDKDHPDSCTO-WQLSENKSSA-N,CCO[P](=O)(OCC)OC(=C\Cl)/c1ccc(Cl)cc1Cl,-3.4624
4208,B-4209,3-chloro-dimethyl parathion,"InChI=1S/C8H9ClNO5PS/c1-13-16(17,14-2)15-6-3-4-8(10(11)12)7(9)5-6/h3-5H,1-2H3",NZNRRXXETLSZRO-UHFFFAOYSA-N,CO[P](=S)(OC)Oc1ccc(c(Cl)c1)[N+]([O-])=O,-3.8717
4209,B-4210,neburon,"InChI=1S/C12H16Cl2N2O/c1-3-4-7-16(2)12(17)15-9-5-6-10(13)11(14)8-9/h5-6,8H,3-4,7H2,1-2H3,(H,15,17)",CCGPUGMWYLICGL-UHFFFAOYSA-N,CCCCN(C)C(=O)Nc1ccc(Cl)c(Cl)c1,-4.7584
4210,B-4211,o-butyl carbamate,"InChI=1S/C5H11NO2/c1-2-3-4-8-5(6)7/h2-4H2,1H3,(H2,6,7)",SKKTUOZKZKCGTB-UHFFFAOYSA-N,CCCCOC(N)=O,-0.6571
4211,B-4212,o-methyl carbamate,"InChI=1S/C2H5NO2/c1-5-2(3)4/h1H3,(H2,3,4)",GTCAXTIRRLKXRU-UHFFFAOYSA-N,COC(N)=O,0.9640000000000001
4212,B-4213,o-propylcarbamate,"InChI=1S/C4H9NO2/c1-2-3-7-4(5)6/h2-3H2,1H3,(H2,5,6)",YNTOKMNHRPSGFU-UHFFFAOYSA-N,CCCOC(N)=O,-0.1302
4213,B-4214,propanil,"InChI=1S/C9H9Cl2NO/c1-2-9(13)12-6-3-4-7(10)8(11)5-6/h3-5H,2H2,1H3,(H,12,13)",LFULEKSKNZEWOE-UHFFFAOYSA-N,CCC(=O)Nc1ccc(Cl)c(Cl)c1,-2.9864
4214,B-4215,eptam (eptc),"InChI=1S/C9H19NOS/c1-4-7-10(8-5-2)9(11)12-6-3/h4-8H2,1-3H3",GUVLYNGULCJVDO-UHFFFAOYSA-N,CCCN(CCC)C(=O)SCC,-2.7032
4215,B-4216,carbophenthion,"InChI=1S/C11H16ClO2PS3/c1-3-13-15(16,14-4-2)18-9-17-11-7-5-10(12)6-8-11/h5-8H,3-4,9H2,1-2H3",VEDTXTNSFWUXGQ-UHFFFAOYSA-N,CCO[P](=S)(OCC)SCSc1ccc(Cl)cc1,-5.7358
4216,B-4217,carbophenothion-methyl,"InChI=1S/C9H12ClO2PS3/c1-11-13(14,12-2)16-7-15-9-5-3-8(10)4-6-9/h3-6H,7H2,1-2H3",OUCCVXVYGFBXSV-UHFFFAOYSA-N,CO[P](=S)(OC)SCSc1ccc(Cl)cc1,-5.2939
4217,B-4218,stirofos,"InChI=1S/C10H9Cl4O4P/c1-16-19(15,17-2)18-10(5-11)6-3-8(13)9(14)4-7(6)12/h3-5H,1-2H3/b10-5+",UBCKGWBNUIFUST-BJMVGYQFSA-N,CO[P](=O)(OC)OC(=C/Cl)/c1cc(Cl)c(Cl)cc1Cl,-4.5221
4218,B-4219,n-methyl-m-tolylcarbamate,"InChI=1S/C9H11NO2/c1-7-4-3-5-8(6-7)12-9(11)10-2/h3-6H,1-2H3,(H,10,11)",VOEYXMAFNDNNED-UHFFFAOYSA-N,CNC(=O)Oc1cccc(C)c1,-1.8030000000000002
4219,B-4220,monolinuron,"InChI=1S/C9H11ClN2O2/c1-12(14-2)9(13)11-8-5-3-7(10)4-6-8/h3-6H,1-2H3,(H,11,13)",LKJPSUCKSLORMF-UHFFFAOYSA-N,CON(C)C(=O)Nc1ccc(Cl)cc1,-2.3632
4220,B-4221,chlorothanonil,InChI=1S/C8Cl4N2/c9-5-3(1-13)6(10)8(12)7(11)4(5)2-14,CRQQGFGUEAVUIL-UHFFFAOYSA-N,Clc1c(Cl)c(C#N)c(Cl)c(C#N)c1Cl,-5.6466
4221,B-4222,epn,"InChI=1S/C14H14NO4PS/c1-2-18-20(21,14-6-4-3-5-7-14)19-13-10-8-12(9-11-13)15(16)17/h3-11H,2H2,1H3",AIGRXSNSLVJMEA-UHFFFAOYSA-N,CCO[P](=S)(Oc1ccc(cc1)[N+]([O-])=O)c2ccccc2,-5.0169
4222,B-4223,bromophos,"InChI=1S/C8H8BrCl2O3PS/c1-12-15(16,13-2)14-8-4-6(10)5(9)3-7(8)11/h3-4H,1-2H3",NYQDCVLCJXRDSK-UHFFFAOYSA-N,CO[P](=S)(OC)Oc1cc(Cl)c(Br)cc1Cl,-6.0864
4223,B-4224,fluometuron,"InChI=1S/C10H11F3N2O/c1-15(2)9(16)14-8-5-3-4-7(6-8)10(11,12)13/h3-6H,1-2H3,(H,14,16)",RZILCCPWPBTYDO-UHFFFAOYSA-N,CN(C)C(=O)Nc1cccc(c1)C(F)(F)F,-3.4365
4224,B-4225,molinate,"InChI=1S/C9H17NOS/c1-2-12-9(11)10-7-5-3-4-6-8-10/h2-8H2,1H3",DEDOPGXGGQYYMW-UHFFFAOYSA-N,CCSC(=O)N1CCCCCC1,-2.2858
4225,B-4226,solan,"InChI=1S/C13H18ClNO/c1-4-5-10(3)13(16)15-11-7-6-9(2)12(14)8-11/h6-8,10H,4-5H2,1-3H3,(H,15,16)",WGVWLKXZBUVUAM-UHFFFAOYSA-N,CCCC(C)C(=O)Nc1ccc(C)c(Cl)c1,-4.4503
4226,B-4227,"3,4-dimephenyl n-methylcarbamate","InChI=1S/C10H13NO2/c1-7-4-5-9(6-8(7)2)13-10(12)11-3/h4-6H,1-3H3,(H,11,12)",WCJYTPVNMWIZCG-UHFFFAOYSA-N,CNC(=O)Oc1ccc(C)c(C)c1,-2.1394
4227,B-4228,dicapthon,"InChI=1S/C8H9ClNO5PS/c1-13-16(17,14-2)15-8-4-3-6(10(11)12)5-7(8)9/h3-5H,1-2H3",OTKXWJHPGBRXCR-UHFFFAOYSA-N,CO[P](=S)(OC)Oc1ccc(cc1Cl)[N+]([O-])=O,-4.3064
4228,B-4229,3-i-pr-5-mephenyl-n-me carbamate,"InChI=1S/C12H17NO2/c1-8(2)10-5-9(3)6-11(7-10)15-12(14)13-4/h5-8H,1-4H3,(H,13,14)",DTAPQAJKAFRNJB-UHFFFAOYSA-N,CNC(=O)Oc1cc(C)cc(c1)C(C)C,-3.3575
4229,B-4230,n-methyl-2-isopropylphenylcarbam,"InChI=1S/C11H15NO2/c1-8(2)9-6-4-5-7-10(9)14-11(13)12-3/h4-8H,1-3H3,(H,12,13)",QBSJMKIUCUGGNG-UHFFFAOYSA-N,CNC(=O)Oc1ccccc1C(C)C,-2.6841
4230,B-4231,cyanophos,"InChI=1S/C9H10NO3PS/c1-11-14(15,12-2)13-9-5-3-8(7-10)4-6-9/h3-6H,1-2H3",SCKHCCSZFPSHGR-UHFFFAOYSA-N,CO[P](=S)(OC)Oc1ccc(cc1)C#N,-3.7232
4231,B-4232,"3,5-Xylyl methylcarbamate","InChI=1S/C10H13NO2/c1-7-4-8(2)6-9(5-7)13-10(12)11-3/h4-6H,1-3H3,(H,11,12)",CVQODEWAPZVVBU-UHFFFAOYSA-N,CNC(=O)Oc1cc(C)cc(C)c1,-2.5813
4232,B-4233,metobromuron,"InChI=1S/C9H11BrN2O2/c1-12(14-2)9(13)11-8-5-3-7(10)4-6-8/h3-6H,1-2H3,(H,11,13)",WLFDQEVORAMCIM-UHFFFAOYSA-N,CON(C)C(=O)Nc1ccc(Br)cc1,-2.895
4233,B-4234,asulam,"InChI=1S/C8H10N2O4S/c1-14-8(11)10-15(12,13)7-4-2-6(9)3-5-7/h2-5H,9H2,1H3,(H,10,11)",VGPYEHKOIGNJKV-UHFFFAOYSA-N,COC(=O)N[S](=O)(=O)c1ccc(N)cc1,-1.6632
4234,B-4235,abate,"InChI=1S/C16H20O6P2S3/c1-17-23(25,18-2)21-13-5-9-15(10-6-13)27-16-11-7-14(8-12-16)22-24(26,19-3)20-4/h5-12H,1-4H3",WWJZWCUNLNYYAU-UHFFFAOYSA-N,CO[P](=S)(OC)Oc1ccc(Sc2ccc(O[P](=S)(OC)OC)cc2)cc1,-6.2375
4235,B-4236,buturon,"InChI=1S/C12H13ClN2O/c1-4-9(2)15(3)12(16)14-11-7-5-10(13)6-8-11/h1,5-9H,2-3H3,(H,14,16)",BYYMILHAKOURNM-UHFFFAOYSA-N,CC(C#C)N(C)C(=O)Nc1ccc(Cl)cc1,-3.8971
4236,B-4237,n-me o-sec-buphenyl carbamate,"InChI=1S/C12H17NO2/c1-4-9(2)10-7-5-6-8-11(10)15-12(14)13-3/h5-9H,4H2,1-3H3,(H,13,14)",DIRFUJHNVNOBMY-UHFFFAOYSA-N,CCC(C)c1ccccc1OC(=O)NC,-2.497
4237,B-4238,salithion,"InChI=1S/C8H9O3PS/c1-9-12(13)10-6-7-4-2-3-5-8(7)11-12/h2-5H,6H2,1H3",OUNSASXJZHBGAI-UHFFFAOYSA-N,CO[P]1(=S)OCc2ccccc2O1,-3.5714
4238,B-4239,bromophos ethyl,"InChI=1S/C10H12BrCl2O3PS/c1-3-14-17(18,15-4-2)16-10-6-8(12)7(11)5-9(10)13/h5-6H,3-4H2,1-2H3",KWGUFOITWDSNQY-UHFFFAOYSA-N,CCO[P](=S)(OCC)Oc1cc(Cl)c(Br)cc1Cl,-5.9521
4239,B-4240,monalide,"InChI=1S/C13H18ClNO/c1-4-9-13(2,3)12(16)15-11-7-5-10(14)6-8-11/h5-8H,4,9H2,1-3H3,(H,15,16)",KXGYBSNVFXBPNO-UHFFFAOYSA-N,CCCC(C)(C)C(=O)Nc1ccc(Cl)cc1,-4.0218
4240,B-4241,propaphos,"InChI=1S/C13H21O4PS/c1-4-10-15-18(14,16-11-5-2)17-12-6-8-13(19-3)9-7-12/h6-9H,4-5,10-11H2,1-3H3",PWYIUEFFPNVCMW-UHFFFAOYSA-N,CCCO[P](=O)(OCCC)Oc1ccc(SC)cc1,-3.3865
4241,B-4242,cyanofenphos,"InChI=1S/C15H14NO2PS/c1-2-17-19(20,15-6-4-3-5-7-15)18-14-10-8-13(12-16)9-11-14/h3-11H,2H2,1H3",LRNJHZNPJSPMGK-UHFFFAOYSA-N,CCO[P](=S)(Oc1ccc(cc1)C#N)c2ccccc2,-5.7037
4242,B-4243,terbufos,"InChI=1S/C9H21O2PS3/c1-6-10-12(13,11-7-2)15-8-14-9(3,4)5/h6-8H2,1-5H3",XLNZEKHULJKQBA-UHFFFAOYSA-N,CCO[P](=S)(OCC)SCSC(C)(C)C,-4.755