,ID,Name,InChI,InChIKey,SMILES,Solubility
1712,B-1713,"10h-phenothiazine, 2-chloro-7-methoxy-","InChI=1S/C13H10ClNOS/c1-16-9-3-4-10-13(7-9)17-12-5-2-8(14)6-11(12)15-10/h2-7,15H,1H3",VGCKEWCZFDSELD-UHFFFAOYSA-N,COc1ccc2Nc3cc(Cl)ccc3Sc2c1,-4.9787
1713,B-1714,dehydroabietic acid,"InChI=1S/C20H28O2/c1-13(2)14-6-8-16-15(12-14)7-9-17-19(16,3)10-5-11-20(17,4)18(21)22/h6,8,12-13,17H,5,7,9-11H2,1-4H3,(H,21,22)/t17-,19-,20-/m1/s1",NFWKVWVWBFBAOV-MISYRCLQSA-N,CC(C)c1ccc2c(CC[C@H]3[C@@](C)(CCC[C@]23C)C(O)=O)c1,-4.6582
1714,B-1715,"[1,2,4,5]tetrazino[1,2-a][1,2,4,5]tetrazine, oct","InChI=1S/C4H12N6/c1-5-6-3-10-4-8-7-2-9(1)10/h5-8H,1-4H2",RRIGVQQUVAETIG-UHFFFAOYSA-N,C1NNCN2CNNCN12,-0.0128
1715,B-1716,nicotinanilide,"InChI=1S/C12H10N2O/c15-12(10-5-4-8-13-9-10)14-11-6-2-1-3-7-11/h1-9H,(H,14,15)",NYQXIOZBHWFCBU-UHFFFAOYSA-N,O=C(Nc1ccccc1)c2cccnc2,-3.093
1716,B-1717,"1,2,3-benzothiadiazol-5-amine","InChI=1S/C6H5N3S/c7-4-1-2-6-5(3-4)8-9-10-6/h1-3H,7H2",NTOZWWRQYAJWGC-UHFFFAOYSA-N,Nc1ccc2snnc2c1,-1.3045
1717,B-1718,"thiocyanic acid, ammonium salt",InChI=1S/CHNS.H3N/c2-1-3;/h3H;1H3,SOIFLUNRINLCBN-UHFFFAOYSA-N,[NH4+].[S-]C#N,0.9178
1718,B-1719,"benzenemethanol, 2,4-dichloro-","InChI=1S/C7H6Cl2O/c8-6-2-1-5(4-10)7(9)3-6/h1-3,10H,4H2",DBHODFSFBXJZNY-UHFFFAOYSA-N,OCc1ccc(Cl)cc1Cl,-2.248
1719,B-1720,"methane, chloronitro-",InChI=1S/CH2ClNO2/c2-1-3(4)5/h1H2,CGKPGVZMSKVVOF-UHFFFAOYSA-N,[O-][N+](=O)CCl,-0.281
1720,B-1721,"propanal, 2-(hydroxyimino)-, oxime","InChI=1S/C3H6N2O2/c1-3(5-7)2-4-6/h2,5,7H,1H3/b3-2+",YYWZDZMCXPSGDF-NSCUHMNNSA-N,C\C(NO)=C/N=O,-0.3462
1721,B-1722,"3,4-dichlorobenzyl alcohol","InChI=1S/C7H6Cl2O/c8-6-2-1-5(4-10)3-7(6)9/h1-3,10H,4H2",FVJIUQSKXOYFKG-UHFFFAOYSA-N,OCc1ccc(Cl)c(Cl)c1,-2.0439
1722,B-1723,dibutyl phosphite,"InChI=1S/C8H18O3P/c1-3-5-7-10-12(9)11-8-6-4-2/h3-8H2,1-2H3/q+1",OSPSWZSRKYCQPF-UHFFFAOYSA-N,CCCCO[P+](=O)OCCCC,-1.4249
1723,B-1724,"1,5-dichloronaphthalene",InChI=1S/C10H6Cl2/c11-9-5-1-3-7-8(9)4-2-6-10(7)12/h1-6H,ZBQZXTBAGBTUAD-UHFFFAOYSA-N,Clc1cccc2c(Cl)cccc12,-5.716
1724,B-1725,"1,4-dichloronaphthalene",InChI=1S/C10H6Cl2/c11-9-5-6-10(12)8-4-2-1-3-7(8)9/h1-6H,JDPKCYMVSKDOGS-UHFFFAOYSA-N,Clc1ccc(Cl)c2ccccc12,-5.3576
1725,B-1726,"2-[(6-chloro-3-pyridazinyl)thio]-n,n-diethylacet","InChI=1S/C10H14ClN3OS/c1-3-14(4-2)10(15)7-16-9-6-5-8(11)12-13-9/h5-6H,3-4,7H2,1-2H3",SSLKKMZJCJBOML-UHFFFAOYSA-N,CCN(CC)C(=O)CSc1ccc(Cl)nn1,-1.7156
1726,B-1727,nitrofen,InChI=1S/C12H7Cl2NO3/c13-8-1-6-12(11(14)7-8)18-10-4-2-9(3-5-10)15(16)17/h1-7H,XITQUSLLOSKDTB-UHFFFAOYSA-N,[O-][N+](=O)c1ccc(Oc2ccc(Cl)cc2Cl)cc1,-5.4535
1727,B-1728,chlornitrofen,InChI=1S/C12H6Cl3NO3/c13-7-5-10(14)12(11(15)6-7)19-9-3-1-8(2-4-9)16(17)18/h1-6H,XQNAUQUKWRBODG-UHFFFAOYSA-N,[O-][N+](=O)c1ccc(Oc2c(Cl)cc(Cl)cc2Cl)cc1,-5.6201
1728,B-1729,"4-heptanol, 3-methyl-","InChI=1S/C8H18O/c1-4-6-8(9)7(3)5-2/h7-9H,4-6H2,1-3H3",JMRDKKYZLXDPLN-UHFFFAOYSA-N,CCCC(O)C(C)CC,-1.8406
1729,B-1730,fluspirilene,"InChI=1S/C29H31F2N3O/c30-24-12-8-22(9-13-24)27(23-10-14-25(31)15-11-23)7-4-18-33-19-16-29(17-20-33)28(35)32-21-34(29)26-5-2-1-3-6-26/h1-3,5-6,8-15,27H,4,7,16-21H2,(H,32,35)",QOYHHIBFXOOADH-UHFFFAOYSA-N,Fc1ccc(cc1)C(CCCN2CCC3(CC2)N(CNC3=O)c4ccccc4)c5ccc(F)cc5,-4.6772
1730,B-1731,undecanedioic acid,"InChI=1S/C11H20O4/c12-10(13)8-6-4-2-1-3-5-7-9-11(14)15/h1-9H2,(H,12,13)(H,14,15)",LWBHHRRTOZQPDM-UHFFFAOYSA-N,OC(=O)CCCCCCCCCC(O)=O,-1.6274
1731,B-1732,dimethyl tetrachloroterephthalate,InChI=1S/C10H6Cl4O4/c1-17-9(15)3-5(11)7(13)4(10(16)18-2)8(14)6(3)12/h1-2H3,NPOJQCVWMSKXDN-UHFFFAOYSA-N,COC(=O)c1c(Cl)c(Cl)c(c(Cl)c1Cl)C(=O)OC,-5.8221
1732,B-1733,benefin,"InChI=1S/C13H16F3N3O4/c1-3-5-6-17(4-2)12-10(18(20)21)7-9(13(14,15)16)8-11(12)19(22)23/h7-8H,3-6H2,1-2H3",SMDHCQAYESWHAE-UHFFFAOYSA-N,CCCCN(CC)c1c(cc(cc1[N+]([O-])=O)C(F)(F)F)[N+]([O-])=O,-6.5254
1733,B-1734,tritac,"InChI=1S/C10H11Cl3O2/c1-6(14)4-15-5-7-8(11)2-3-9(12)10(7)13/h2-3,6,14H,4-5H2,1H3",LJWIIRATRWPHBA-UHFFFAOYSA-N,CC(O)COCc1c(Cl)ccc(Cl)c1Cl,-3.5673
1734,B-1735,ketamine,"InChI=1S/C13H16ClNO.ClH/c1-15-13(9-5-4-8-12(13)16)10-6-2-3-7-11(10)14;/h2-3,6-7,15H,4-5,8-9H2,1H3;1H",VCMGMSHEPQENPE-UHFFFAOYSA-N,[H+].[Cl-].CNC1(CCCCC1=O)c2ccccc2Cl,-0.13699999999999998
1735,B-1736,"phenol, 4-chloro-3,5-dimethyl-2-(phenylmethyl)-","InChI=1S/C15H15ClO/c1-10-8-14(17)13(11(2)15(10)16)9-12-6-4-3-5-7-12/h3-8,17H,9H2,1-2H3",DTWBOPJMZJGHEW-UHFFFAOYSA-N,Cc1cc(O)c(Cc2ccccc2)c(C)c1Cl,-4.3009
1736,B-1737,"ethanediamide, n,n'-bis(2-hydroxyethyl)-","InChI=1S/C6H12N2O4/c9-3-1-7-5(11)6(12)8-2-4-10/h9-10H,1-4H2,(H,7,11)(H,8,12)",FPQJEXTVQZHURJ-UHFFFAOYSA-N,OCCNC(=O)C(=O)NCCO,-0.1124
1737,B-1738,psicofuranine,"InChI=1S/C11H15N5O5/c12-9-6-10(14-3-13-9)16(4-15-6)11(2-18)8(20)7(19)5(1-17)21-11/h3-5,7-8,17-20H,1-2H2,(H2,12,13,14)/t5-,7-,8-,11-/m1/s1",BNZYRKVSCLSXSJ-IOSLPCCCSA-N,Nc1ncnc2n(cnc12)[C@]3(CO)O[C@H](CO)[C@@H](O)[C@H]3O,-1.5701
1738,B-1739,o-methylphenoxyacetic acid,"InChI=1S/C9H10O3/c1-7-4-2-3-5-8(7)12-6-9(10)11/h2-5H,6H2,1H3,(H,10,11)",QJVXBRUGKLCUMY-UHFFFAOYSA-N,Cc1ccccc1OCC(O)=O,-2.4424
1739,B-1740,o-nitrophenoxyacetic acid,"InChI=1S/C8H7NO5/c10-8(11)5-14-7-4-2-1-3-6(7)9(12)13/h1-4H,5H2,(H,10,11)",TYHHDWAHJRRYCU-UHFFFAOYSA-N,OC(=O)COc1ccccc1[N+]([O-])=O,-2.016
1740,B-1741,di-tert-butylsulfone,"InChI=1S/C8H18O2S/c1-7(2,3)11(9,10)8(4,5)6/h1-6H3",SPJQDMKTFSPPLO-UHFFFAOYSA-N,CC(C)(C)[S](=O)(=O)C(C)(C)C,-1.2177
1741,B-1742,perchloropropylene,"InChI=1S/C3Cl6/c4-1(2(5)6)3(7,8)9",VFDYKPARTDCDCU-UHFFFAOYSA-N,ClC(Cl)=C(Cl)C(Cl)(Cl)Cl,-4.1651
1742,B-1743,"2-furancarboxaldehyde, 5-bromo-",InChI=1S/C5H3BrO2/c6-5-2-1-4(3-7)8-5/h1-3H,WJTFHWXMITZNHS-UHFFFAOYSA-N,Brc1oc(C=O)cc1,-1.544
1743,B-1744,ipazine,"InChI=1S/C10H18ClN5/c1-5-16(6-2)10-14-8(11)13-9(15-10)12-7(3)4/h7H,5-6H2,1-4H3,(H,12,13,14,15)",OWYWGLHRNBIFJP-UHFFFAOYSA-N,CCN(CC)c1nc(Cl)nc(NC(C)C)n1,-3.7849
1744,B-1745,"2-furancarboxylic acid, 5-methyl-","InChI=1S/C6H6O3/c1-4-2-3-5(9-4)6(7)8/h2-3H,1H3,(H,7,8)",OVOCLWJUABOAPL-UHFFFAOYSA-N,Cc1oc(cc1)C(O)=O,-0.8243
1745,B-1746,"2-furancarboxaldehyde, 5-(methoxymethyl)-","InChI=1S/C7H8O3/c1-9-5-7-3-2-6(4-8)10-7/h2-4H,5H2,1H3",ASHVULSQMDWKFO-UHFFFAOYSA-N,COCc1oc(C=O)cc1,-0.4992
1746,B-1747,dicamba,"InChI=1S/C8H6Cl2O3/c1-13-7-5(10)3-2-4(9)6(7)8(11)12/h2-3H,1H3,(H,11,12)",IWEDIXLBFLAXBO-UHFFFAOYSA-N,COc1c(Cl)ccc(Cl)c1C(O)=O,-1.4249
1747,B-1748,picloram,"InChI=1S/C6H3Cl3N2O2/c7-1-3(10)2(8)5(9)11-4(1)6(12)13/h(H2,10,11)(H,12,13)",NQQVFXUMIDALNH-UHFFFAOYSA-N,Nc1c(Cl)c(Cl)nc(C(O)=O)c1Cl,-2.7494
1748,B-1749,dipropalin,"InChI=1S/C13H19N3O4/c1-4-6-14(7-5-2)13-11(15(17)18)8-10(3)9-12(13)16(19)20/h8-9H,4-7H2,1-3H3",UDVZOMAEGATTSE-UHFFFAOYSA-N,CCCN(CCC)c1c(cc(C)cc1[N+]([O-])=O)[N+]([O-])=O,-2.9663
1749,B-1750,"2,6-di-t-butyl-p-tolyl methylcarbamate","InChI=1S/C17H27NO2/c1-11-9-12(16(2,3)4)14(20-15(19)18-8)13(10-11)17(5,6)7/h9-10H,1-8H3,(H,18,19)",PNRAZZZISDRWMV-UHFFFAOYSA-N,CNC(=O)Oc1c(cc(C)cc1C(C)(C)C)C(C)(C)C,-4.598
1750,B-1751,dl-homoserine,"InChI=1S/C4H9NO3/c5-3(1-2-6)4(7)8/h3,6H,1-2,5H2,(H,7,8)/t3-/m0/s1",UKAUYVFTDYCKQA-VKHMYHEASA-N,N[C@@H](CCO)C(O)=O,0.924
1751,B-1752,10h-phenothiazin-3-ol,"InChI=1S/C12H9NOS/c14-8-5-6-10-12(7-8)15-11-4-2-1-3-9(11)13-10/h1-7,13-14H",JAMWHXUWMDVHJF-UHFFFAOYSA-N,Oc1ccc2Nc3ccccc3Sc2c1,-2.5748
1752,B-1753,"2,4-d, methyl ester","InChI=1S/C9H8Cl2O3/c1-13-9(12)5-14-8-3-2-6(10)4-7(8)11/h2-4H,5H2,1H3",HWIGZMADSFQMOI-UHFFFAOYSA-N,COC(=O)COc1ccc(Cl)cc1Cl,-2.9596
1753,B-1754,"2,4,5-t, ethyl ester","InChI=1S/C10H9Cl3O3/c1-2-15-10(14)5-16-9-4-7(12)6(11)3-8(9)13/h3-4H,2,5H2,1H3",LVNNFHCEDQSWSC-UHFFFAOYSA-N,CCOC(=O)COc1cc(Cl)c(Cl)cc1Cl,-4.8493
1754,B-1755,"2,4-d, octyl ester","InChI=1S/C16H22Cl2O3/c1-2-3-4-5-6-7-10-20-16(19)12-21-15-9-8-13(17)11-14(15)18/h8-9,11H,2-7,10,12H2,1H3",JWEDKKSQRXHXJD-UHFFFAOYSA-N,CCCCCCCCOC(=O)COc1ccc(Cl)cc1Cl,-7.0217
1755,B-1756,"2,4-d, propyl ester","InChI=1S/C11H12Cl2O3/c1-2-5-15-11(14)7-16-10-4-3-8(12)6-9(10)13/h3-4,6H,2,5,7H2,1H3",URELEWKDONECLX-UHFFFAOYSA-N,CCCOC(=O)COc1ccc(Cl)cc1Cl,-4.2502
1756,B-1757,p-meo-b-phenylpropionic acid,"InChI=1S/C10H12O3/c1-13-9-5-2-8(3-6-9)4-7-10(11)12/h2-3,5-6H,4,7H2,1H3,(H,11,12)",FIUFLISGGHNPSM-UHFFFAOYSA-N,COc1ccc(CCC(O)=O)cc1,-2.2144
1757,B-1758,"2,4-d, butoxyethyl ester","InChI=1S/C14H18Cl2O4/c1-2-3-6-18-7-8-19-14(17)10-20-13-5-4-11(15)9-12(13)16/h4-5,9H,2-3,6-8,10H2,1H3",ZMWGIGHRZQTQRE-UHFFFAOYSA-N,CCCCOCCOC(=O)COc1ccc(Cl)cc1Cl,-4.4276
1758,B-1759,vernolate,"InChI=1S/C10H21NOS/c1-4-7-11(8-5-2)10(12)13-9-6-3/h4-9H2,1-3H3",OKUGPJPKMAEJOE-UHFFFAOYSA-N,CCCSC(=O)N(CCC)CCC,-3.3539999999999996
1759,B-1760,nitrapyrin,"InChI=1S/C6H3Cl4N/c7-5-3-1-2-4(11-5)6(8,9)10/h1-3H",DCUJJWWUNKIJPH-UHFFFAOYSA-N,Clc1cccc(n1)C(Cl)(Cl)Cl,-3.5061
1760,B-1761,benzthiazuron,"InChI=1S/C9H9N3OS/c1-10-8(13)12-9-11-6-4-2-3-5-7(6)14-9/h2-5H,1H3,(H2,10,11,12,13)",DTCJYIIKPVRVDD-UHFFFAOYSA-N,CNC(=O)Nc1sc2ccccc2n1,-4.2373
1761,B-1762,chlorotrinitromethane,"InChI=1S/CClN3O6/c2-1(3(6)7,4(8)9)5(10)11",GNZCDDDPGSFZFG-UHFFFAOYSA-N,[O-][N+](=O)C(Cl)([N+]([O-])=O)[N+]([O-])=O,-1.9259
1762,B-1763,"1,2-cyclohexanediol, 1-methyl-4-(1-methylethenyl","InChI=1S/C10H18O2/c1-7(2)8-4-5-10(3,12)9(11)6-8/h8-9,11-12H,1,4-6H2,2-3H3",WKZWTZTZWGWEGE-UHFFFAOYSA-N,CC(=C)C1CCC(C)(O)C(O)C1,-0.2311
1763,B-1764,propane-1-thiosulfinic acid s-propyl ester,"InChI=1S/C6H14OS2/c1-3-5-8-9(7)6-4-2/h3-6H2,1-2H3",XPRZAEWSYWTDSQ-UHFFFAOYSA-N,CCCS[S](=O)CCC,-0.9199
1764,B-1765,"1,3-benzenedicarboxylic acid, 2-methoxy-","InChI=1S/C9H8O5/c1-14-7-5(8(10)11)3-2-4-6(7)9(12)13/h2-4H,1H3,(H,10,11)(H,12,13)",ZRWAPLTWCQQSAN-UHFFFAOYSA-N,COc1c(cccc1C(O)=O)C(O)=O,-2.2926
1765,B-1766,"propanoic acid, 4-nitrophenyl ester","InChI=1S/C9H9NO4/c1-2-9(11)14-8-5-3-7(4-6-8)10(12)13/h3-6H,2H2,1H3",DCQWRDUXRZSWHI-UHFFFAOYSA-N,CCC(=O)Oc1ccc(cc1)[N+]([O-])=O,-3.8925
1766,B-1767,"pentanoic acid, 4-nitrophenyl ester","InChI=1S/C11H13NO4/c1-2-3-4-11(13)16-10-7-5-9(6-8-10)12(14)15/h5-8H,2-4H2,1H3",RJQXEHRFVKJLJO-UHFFFAOYSA-N,CCCCC(=O)Oc1ccc(cc1)[N+]([O-])=O,-4.3945
1767,B-1768,p-dibutylterephthalate,"InChI=1S/C16H22O4/c1-3-5-11-19-15(17)13-7-9-14(10-8-13)16(18)20-12-6-4-2/h7-10H,3-6,11-12H2,1-2H3",LQLQDKBJAIILIQ-UHFFFAOYSA-N,CCCCOC(=O)c1ccc(cc1)C(=O)OCCCC,-5.4669
1768,B-1769,"l-valine, n-glycyl-","InChI=1S/C7H14N2O3/c1-4(2)6(7(11)12)9-5(10)3-8/h4,6H,3,8H2,1-2H3,(H,9,10)(H,11,12)",STKYPAFSDFAEPH-UHFFFAOYSA-N,CC(C)C(NC(=O)CN)C(O)=O,0.4579
1769,B-1770,"hexanediamide, n,n'-bis(2-hydroxyethyl)-","InChI=1S/C10H20N2O4/c13-7-5-11-9(15)3-1-2-4-10(16)12-6-8-14/h13-14H,1-8H2,(H,11,15)(H,12,16)",OSGRUAAPIRXZTJ-UHFFFAOYSA-N,OCCNC(=O)CCCCC(=O)NCCO,0.4121
1770,B-1771,"3,4-dichlorobenzyl methylcarbamate","InChI=1S/C9H9Cl2NO2/c1-12-9(13)14-5-6-2-3-7(10)8(11)4-6/h2-4H,5H2,1H3,(H,12,13)",DSVOTYIOPGIVPP-UHFFFAOYSA-N,CNC(=O)OCc1ccc(Cl)c(Cl)c1,-3.1389
1771,B-1772,chlorbufam,"InChI=1S/C11H10ClNO2/c1-3-8(2)15-11(14)13-10-6-4-5-9(12)7-10/h1,4-8H,2H3,(H,13,14)",ULBXWWGWDPVHAO-UHFFFAOYSA-N,CC(OC(=O)Nc1cccc(Cl)c1)C#C,-2.6172
1772,B-1773,p-bromophenylurea,"InChI=1S/C7H7BrN2O/c8-5-1-3-6(4-2-5)10-7(9)11/h1-4H,(H3,9,10,11)",PFQUUCXMPUNRLA-UHFFFAOYSA-N,NC(=O)Nc1ccc(Br)cc1,-1.6336
1773,B-1774,1-bromo-2-ethylbenzene,"InChI=1S/C8H9Br/c1-2-7-5-3-4-6-8(7)9/h3-6H,2H2,1H3",HVRUGFJYCAFAAN-UHFFFAOYSA-N,CCc1ccccc1Br,-3.6702
1774,B-1775,chloroxuron,"InChI=1S/C15H15ClN2O2/c1-18(2)15(19)17-12-5-9-14(10-6-12)20-13-7-3-11(16)4-8-13/h3-10H,1-2H3,(H,17,19)",IVUXTESCPZUGJC-UHFFFAOYSA-N,CN(C)C(=O)Nc1ccc(Oc2ccc(Cl)cc2)cc1,-4.8953
1775,B-1776,siduron,"InChI=1S/C14H20N2O/c1-11-7-5-6-10-13(11)16-14(17)15-12-8-3-2-4-9-12/h2-4,8-9,11,13H,5-7,10H2,1H3,(H2,15,16,17)",JXVIIQLNUPXOII-UHFFFAOYSA-N,CC1CCCCC1NC(=O)Nc2ccccc2,-4.1108
1776,B-1777,"benzene, 1,2-dichloro-3-methoxy-","InChI=1S/C7H6Cl2O/c1-10-6-4-2-3-5(8)7(6)9/h2-4H,1H3",HFEASCCDHUVYKU-UHFFFAOYSA-N,COc1cccc(Cl)c1Cl,-3.3089999999999997
1777,B-1778,"benzene, 1,3-dichloro-2-methoxy-","InChI=1S/C7H6Cl2O/c1-10-7-5(8)3-2-4-6(7)9/h2-4H,1H3",KZLMCDNAVVJKPX-UHFFFAOYSA-N,COc1c(Cl)cccc1Cl,-3.1019
1778,B-1779,"2-propenamide, 3-(2-nitrophenyl)-","InChI=1S/C9H8N2O3/c10-9(12)6-5-7-3-1-2-4-8(7)11(13)14/h1-6H,(H2,10,12)",RASLWNGTMHFPIQ-UHFFFAOYSA-N,NC(=O)C=Cc1ccccc1[N+]([O-])=O,-1.2837
1779,B-1780,"1h-purine, 6-methyl-","InChI=1S/C6H6N4/c1-4-5-6(9-2-7-4)10-3-8-5/h2-3H,1H3,(H,7,8,9,10)",SYMHUEFSSMBHJA-UHFFFAOYSA-N,Cc1ncnc2nc[nH]c12,0.1735
1780,B-1781,butylate,"InChI=1S/C11H23NOS/c1-6-14-11(13)12(7-9(2)3)8-10(4)5/h9-10H,6-8H2,1-5H3",BMTAFVWTTFSTOG-UHFFFAOYSA-N,CCSC(=O)N(CC(C)C)CC(C)C,-3.6839999999999997
1781,B-1782,"4-imidazolidinone, 3-phenyl-2-thioxo-","InChI=1S/C9H8N2OS/c12-8-6-10-9(13)11(8)7-4-2-1-3-5-7/h1-5H,6H2,(H,10,13)",ZZRIQDWDJVLELF-UHFFFAOYSA-N,O=C1CNC(=S)N1c2ccccc2,-3.2425
1782,B-1783,n-decylamine,"InChI=1S/C10H23N/c1-2-3-4-5-6-7-8-9-10-11/h2-11H2,1H3",MHZGKXUYDGKKIU-UHFFFAOYSA-N,CCCCCCCCCCN,-2.4564
1783,B-1784,ethyl b-phenylpropionate,"InChI=1S/C11H14O2/c1-2-13-11(12)9-8-10-6-4-3-5-7-10/h3-7H,2,8-9H2,1H3",JAGZUIGGHGTFHO-UHFFFAOYSA-N,CCOC(=O)CCc1ccccc1,-2.9086
1784,B-1785,flucytosine,"InChI=1S/C4H4FN3O/c5-2-1-7-4(9)8-3(2)6/h1H,(H3,6,7,8,9)",XRECTZIEBJDKEO-UHFFFAOYSA-N,NC1=C(F)C=NC(=O)N1,-0.9348
1785,B-1786,aminocarb,"InChI=1S/C11H16N2O2/c1-8-7-9(15-11(14)12-2)5-6-10(8)13(3)4/h5-7H,1-4H3,(H,12,14)",IMIDOCRTMDIQIJ-UHFFFAOYSA-N,CNC(=O)Oc1ccc(N(C)C)c(C)c1,-2.3572
1786,B-1787,methiocarb,"InChI=1S/C11H15NO2S/c1-7-5-9(14-11(13)12-3)6-8(2)10(7)15-4/h5-6H,1-4H3,(H,12,13)",YFBPRJGDJKVWAH-UHFFFAOYSA-N,CNC(=O)Oc1cc(C)c(SC)c(C)c1,-3.9214
1787,B-1788,propylcyclopentane,"InChI=1S/C8H16/c1-2-5-8-6-3-4-7-8/h8H,2-7H2,1H3",KDIAMAVWIJYWHN-UHFFFAOYSA-N,CCCC1CCCC1,-4.7404
1788,B-1789,"propanamide, 2-hydroxy-","InChI=1S/C3H7NO2/c1-2(5)3(4)6/h2,5H,1H3,(H2,4,6)",SXQFCVDSOLSHOQ-UHFFFAOYSA-N,CC(O)C(N)=O,0.9435
1789,B-1790,"benzene, (1,1-dimethylpropyl)-","InChI=1S/C11H16/c1-4-11(2,3)10-8-6-5-7-9-10/h5-9H,4H2,1-3H3",QHTJSSMHBLGUHV-UHFFFAOYSA-N,CCC(C)(C)c1ccccc1,-4.1498
1790,B-1791,diethyl pimelate,"InChI=1S/C11H20O4/c1-3-14-10(12)8-6-5-7-9-11(13)15-4-2/h3-9H2,1-2H3",LKKOGZVQGQUVHF-UHFFFAOYSA-N,CCOC(=O)CCCCCC(=O)OCC,-2.0408
1791,B-1792,diethyl suberate,"InChI=1S/C12H22O4/c1-3-15-11(13)9-7-5-6-8-10-12(14)16-4-2/h3-10H2,1-2H3",PEUGOJXLBSIJQS-UHFFFAOYSA-N,CCOC(=O)CCCCCCC(=O)OCC,-2.5304
1792,B-1793,"1,2-dichloronaphthalene",InChI=1S/C10H6Cl2/c11-9-6-5-7-3-1-2-4-8(7)10(9)12/h1-6H,MOXLHAPKZWTHEX-UHFFFAOYSA-N,Clc1ccc2ccccc2c1Cl,-6.1611
1793,B-1794,"1,8-dichloronaphthalene",InChI=1S/C10H6Cl2/c11-8-5-1-3-7-4-2-6-9(12)10(7)8/h1-6H,ADRYPAGQXFMVFP-UHFFFAOYSA-N,Clc1cccc2cccc(Cl)c12,-5.7963
1794,B-1795,"2,3-dichloronaphthalene",InChI=1S/C10H6Cl2/c11-9-5-7-3-1-2-4-8(7)6-10(9)12/h1-6H,SKGXUFZRYNGFJS-UHFFFAOYSA-N,Clc1cc2ccccc2cc1Cl,-6.3566
1795,B-1796,"2,4-dihydroxyazobenzene","InChI=1S/C12H10N2O2/c15-10-6-7-11(12(16)8-10)14-13-9-4-2-1-3-5-9/h1-8,13,16H/b14-11+",PULNESMFDLBKAZ-SDNWHVSQSA-N,OC/1=CC(=O)C=CC1=N/Nc2ccccc2,-3.0299
1796,B-1797,"dl-allothreonine, o-methyl-","InChI=1S/C5H11NO3/c1-3(9-2)4(6)5(7)8/h3-4H,6H2,1-2H3,(H,7,8)",FYCWLJLGIAUCCL-UHFFFAOYSA-N,COC(C)C(N)C(O)=O,0.4853
1797,B-1798,"dl-threonine, o-methyl-","InChI=1S/C5H11NO3/c1-3(9-2)4(6)5(7)8/h3-4H,6H2,1-2H3,(H,7,8)",FYCWLJLGIAUCCL-UHFFFAOYSA-N,COC(C)C(N)C(O)=O,0.4979
1798,B-1799,"phenol, 4,4'-(3-methylbutylidene)bis-","InChI=1S/C17H20O2/c1-12(2)11-17(13-3-7-15(18)8-4-13)14-5-9-16(19)10-6-14/h3-10,12,17-19H,11H2,1-2H3",SRFHDEQOIMRMHH-UHFFFAOYSA-N,CC(C)CC(c1ccc(O)cc1)c2ccc(O)cc2,-3.3674
1799,B-1800,"pentanedioic acid, 2,4-dimethyl-","InChI=1S/C7H12O4/c1-4(6(8)9)3-5(2)7(10)11/h4-5H,3H2,1-2H3,(H,8,9)(H,10,11)/p-2/t4-,5+",VIWYMIDWAOZEAZ-SYDPRGILSA-L,C[C@@H](C[C@@H](C)C([O-])=O)C([O-])=O,-0.4564
1800,B-1801,clorexolone,"InChI=1S/C14H17ClN2O3S/c15-12-6-9-8-17(10-4-2-1-3-5-10)14(18)11(9)7-13(12)21(16,19)20/h6-7,10H,1-5,8H2,(H2,16,19,20)",VPMWFZKOWULPGT-UHFFFAOYSA-N,N[S](=O)(=O)c1cc2c(CN(C3CCCCC3)C2=O)cc1Cl,-4.3128
1801,B-1802,"benzene, 1-bromo-3-isothiocyanato-",InChI=1S/C7H4BrNS/c8-6-2-1-3-7(4-6)9-5-10/h1-4H,ZMGMGHNOACSMQN-UHFFFAOYSA-N,Brc1cccc(c1)N=C=S,-4.0851
1802,B-1803,flumethasone,"InChI=1S/C22H28F2O5/c1-11-6-13-14-8-16(23)15-7-12(26)4-5-19(15,2)21(14,24)17(27)9-20(13,3)22(11,29)18(28)10-25/h4-5,7,11,13-14,16-17,25,27,29H,6,8-10H2,1-3H3/t11-,13+,14+,16+,17+,19+,20+,21+,22+/m1/s1",WXURHACBFYSXBI-GQKYHHCASA-N,C[C@@H]1C[C@H]2[C@@H]3C[C@H](F)C4=CC(=O)C=C[C@]4(C)[C@@]3(F)[C@@H](O)C[C@]2(C)[C@@]1(O)C(=O)CO,-5.6133
1803,B-1804,"1,3-benzenediol, 4-cyclohexyl-","InChI=1S/C12H16O2/c13-10-6-7-11(12(14)8-10)9-4-2-1-3-5-9/h6-9,13-14H,1-5H2",LSEHCENPUMUIKC-UHFFFAOYSA-N,Oc1ccc(C2CCCCC2)c(O)c1,-2.5763
1804,B-1805,endosulfan diol,"InChI=1S/C9H8Cl6O2/c10-5-6(11)8(13)4(2-17)3(1-16)7(5,12)9(8,14)15/h3-4,16-17H,1-2H2",GTSJHTSVFKEASK-UHFFFAOYSA-N,OCC1C(CO)C2(Cl)C(=C(Cl)C1(Cl)C2(Cl)Cl)Cl,-3.0802
1805,B-1806,"benzoic acid, 2-(4-bromobenzoyl)-","InChI=1S/C14H9BrO3/c15-10-7-5-9(6-8-10)13(16)11-3-1-2-4-12(11)14(17)18/h1-8H,(H,17,18)",NONNFIAFWRSPPY-UHFFFAOYSA-N,OC(=O)c1ccccc1C(=O)c2ccc(Br)cc2,-3.0074
1806,B-1807,4-ethylamino-6-isopropylamino-s-triazin-2-ol,"InChI=1S/C8H15N5O/c1-4-9-6-11-7(10-5(2)3)13-8(14)12-6/h5H,4H2,1-3H3,(H3,9,10,11,12,13,14)",NFMIMWNQWAWNDW-UHFFFAOYSA-N,CCNC1=NC(=O)N=C(NC(C)C)N1,-4.5241
1807,B-1808,cycluron,"InChI=1S/C11H22N2O/c1-13(2)11(14)12-10-8-6-4-3-5-7-9-10/h10H,3-9H2,1-2H3,(H,12,14)",DQZCVNGCTZLGAQ-UHFFFAOYSA-N,CN(C)C(=O)NC1CCCCCCC1,-2.2182
1808,B-1809,msma,"InChI=1S/CH5AsO3.Na/c1-2(3,4)5;/h1H3,(H2,3,4,5);/q;+1/p-1",JITOKQVGRJSHHA-UHFFFAOYSA-M,[Na+].C[As](O)([O-])=O,0.5539999999999999
1809,B-1810,lenacil,"InChI=1S/C13H18N2O2/c16-12-10-7-4-8-11(10)14-13(17)15(12)9-5-2-1-3-6-9/h9H,1-8H2,(H,14,17)",ZTMKADLOSYKWCA-UHFFFAOYSA-N,O=C1NC2=C(CCC2)C(=O)N1C3CCCCC3,-4.5916
1810,B-1811,dicryl,"InChI=1S/C10H9Cl2NO/c1-6(2)10(14)13-7-3-4-8(11)9(12)5-7/h3-5H,1H2,2H3,(H,13,14)",VCBRBUKGTWLJOB-UHFFFAOYSA-N,CC(=C)C(=O)Nc1ccc(Cl)c(Cl)c1,-4.4325
1811,B-1812,bcpc,"InChI=1S/C11H14ClNO2/c1-3-8(2)15-11(14)13-10-6-4-5-9(12)7-10/h4-8H,3H2,1-2H3,(H,13,14)",CURLHBZYTFVCRG-UHFFFAOYSA-N,CCC(C)OC(=O)Nc1cccc(Cl)c1,-3.1727
1812,B-1813,"naphthalene, 2-(2-methylpropoxy)-","InChI=1S/C14H16O/c1-11(2)10-15-14-8-7-12-5-3-4-6-13(12)9-14/h3-9,11H,10H2,1-2H3",XOHIHZHSDMWWMS-UHFFFAOYSA-N,CC(C)COc1ccc2ccccc2c1,-5.2117
1813,B-1814,bupivacaine,"InChI=1S/C18H28N2O/c1-4-5-12-20-13-7-6-11-16(20)18(21)19-17-14(2)9-8-10-15(17)3/h8-10,16H,4-7,11-13H2,1-3H3,(H,19,21)",LEBVLXFERQHONN-UHFFFAOYSA-N,CCCCN1CCCCC1C(=O)Nc2c(C)cccc2C,-2.0798
1814,B-1815,"2,7-dichloronaphthalene",InChI=1S/C10H6Cl2/c11-9-3-1-7-2-4-10(12)6-8(7)5-9/h1-6H,DWBQZSYTSNYEEJ-UHFFFAOYSA-N,Clc1ccc2ccc(Cl)cc2c1,-5.9217
1815,B-1816,"1h-pyrrole-2-carboxylic acid, 3,5-dimethyl-, eth","InChI=1S/C9H13NO2/c1-4-12-9(11)8-6(2)5-7(3)10-8/h5,10H,4H2,1-3H3",IZSBSZYFPYIJDI-UHFFFAOYSA-N,CCOC(=O)c1[nH]c(C)cc1C,-2.6212
1816,B-1817,"1,3-benzenedicarboxylic acid, 4-methoxy-","InChI=1S/C9H8O5/c1-14-7-3-2-5(8(10)11)4-6(7)9(12)13/h2-4H,1H3,(H,10,11)(H,12,13)",JIICYHFLIOGGHE-UHFFFAOYSA-N,COc1ccc(cc1C(O)=O)C(O)=O,-3.1165
1817,B-1818,"1,2-dimethylcyclohexane (cis)","InChI=1S/C8H16/c1-7-5-3-4-6-8(7)2/h7-8H,3-6H2,1-2H3/t7-,8+",KVZJLSYJROEPSQ-OCAPTIKFSA-N,C[C@H]1CCCC[C@H]1C,-4.2719
1818,B-1819,"1,4-dimethylcyclohexane (trans)","InChI=1S/C8H16/c1-7-3-5-8(2)6-4-7/h7-8H,3-6H2,1-2H3",QRMPKOFEUHIBNM-UHFFFAOYSA-N,CC1CCC(C)CC1,-4.4657
1819,B-1820,"butane, 2,3-dichloro-, (r*,r*)-(.+-.)-","InChI=1S/C4H8Cl2/c1-3(5)4(2)6/h3-4H,1-2H3/t3-,4-/m1/s1",RMISVOPUIFJTEO-QWWZWVQMSA-N,C[C@@H](Cl)[C@@H](C)Cl,-2.3541
1820,B-1821,"1-naphthalenecarboxylic acid, 8-nitro-","InChI=1S/C11H7NO4/c13-11(14)8-5-1-3-7-4-2-6-9(10(7)8)12(15)16/h1-6H,(H,13,14)",USMKVLABRYGBJX-UHFFFAOYSA-N,OC(=O)c1cccc2cccc(c12)[N+]([O-])=O,-2.7501
1821,B-1822,4-methyloctane,"InChI=1S/C9H20/c1-4-6-8-9(3)7-5-2/h9H,4-8H2,1-3H3",DOGIHOCMZJUJNR-UHFFFAOYSA-N,CCCCC(C)CCC,-6.0474
1822,B-1823,menthol (l),"InChI=1S/C10H20O/c1-7(2)9-5-4-8(3)6-10(9)11/h7-11H,4-6H2,1-3H3/t8-,9+,10-/m1/s1",NOOLISFMXDJSKH-KXUCPTDWSA-N,CC(C)[C@@H]1CC[C@@H](C)C[C@H]1O,-2.5037
1823,B-1824,"naphthalene, 1-methoxy-","InChI=1S/C11H10O/c1-12-11-8-4-6-9-5-2-3-7-10(9)11/h2-8H,1H3",NQMUGNMMFTYOHK-UHFFFAOYSA-N,COc1cccc2ccccc12,-4.1992
1824,B-1825,(+)-fenchol,"InChI=1S/C10H18O/c1-9(2)7-4-5-10(3,6-7)8(9)11/h7-8,11H,4-6H2,1-3H3/t7-,8-,10+/m1/s1",IAIHUHQCLTYTSF-MRTMQBJTSA-N,CC1(C)[C@@H]2CC[C@@](C)(C2)[C@@H]1O,-2.2702