,ID,Name,InChI,InChIKey,SMILES,Solubility
2579,B-2580,"3-octanol, (.+-.)-","InChI=1S/C8H18O/c1-3-5-6-7-8(9)4-2/h8-9H,3-7H2,1-2H3",NMRPBPVERJPACX-UHFFFAOYSA-N,CCCCCC(O)CC,-2.0171
2580,B-2581,"phosphorodithioic acid, s-[2-(ethylsulfonyl)ethy","InChI=1S/C6H15O4PS3/c1-4-14(7,8)6-5-13-11(12,9-2)10-3/h4-6H2,1-3H3",GAXMYYJSILFZLT-UHFFFAOYSA-N,CC[S](=O)(=O)CCS[P](=S)(OC)OC,-2.5415
2581,B-2582,tripropylene glycol methyl ether,"InChI=1S/C10H22O4/c1-8(11)5-13-10(3)7-14-9(2)6-12-4/h8-11H,5-7H2,1-4H3",HPFDGTFXAVIVTH-UHFFFAOYSA-N,COCC(C)OCC(C)OCC(C)O,0.6855
2582,B-2583,methazole,"InChI=1S/C9H6Cl2N2O3/c1-12-8(14)13(16-9(12)15)5-2-3-6(10)7(11)4-5/h2-4H,1H3",LRUUNMYPIBZBQH-UHFFFAOYSA-N,CN1C(=O)ON(C1=O)c2ccc(Cl)c(Cl)c2,-5.2407
2583,B-2584,"acetamide, n-(4-propoxyphenyl)-","InChI=1S/C11H15NO2/c1-3-8-14-11-6-4-10(5-7-11)12-9(2)13/h4-7H,3,8H2,1-2H3,(H,12,13)",WDRXFPOGKSGHFM-UHFFFAOYSA-N,CCCOc1ccc(NC(C)=O)cc1,-3.0557
2584,B-2585,"2-bornanone, 3-(hydroxymethyl)-","InChI=1S/C11H18O2/c1-10(2)8-4-5-11(10,3)9(13)7(8)6-12/h7-8,12H,4-6H2,1-3H3",YWQRRMNZXWQQJU-UHFFFAOYSA-N,CC1(C)C2CCC1(C)C(=O)C2CO,-0.215
2585,B-2586,"urea, 1-methyl-1-o-tolyl-","InChI=1S/C9H12N2O/c1-7-5-3-4-6-8(7)11(2)9(10)12/h3-6H,1-2H3,(H2,10,12)",IWYDNHDPJXFEOV-UHFFFAOYSA-N,CN(C(N)=O)c1ccccc1C,-0.4032
2586,B-2587,1-hexyl nitrate,"InChI=1S/C6H13NO3/c1-2-3-4-5-6-10-7(8)9/h2-6H2,1H3",AGDYNDJUZRMYRG-UHFFFAOYSA-N,CCCCCCO[N+]([O-])=O,-3.1265
2587,B-2588,"urea, 1-ethyl-1-o-tolyl-","InChI=1S/C10H14N2O/c1-3-12(10(11)13)9-7-5-4-6-8(9)2/h4-7H,3H2,1-2H3,(H2,11,13)",DVVVPMHPSRJZQX-UHFFFAOYSA-N,CCN(C(N)=O)c1ccccc1C,-0.2096
2588,B-2589,"5-pyrimidineacetic acid, 1,2,3,4-tetrahydro-2,4-","InChI=1S/C6H6N2O4/c9-4(10)1-3-2-7-6(12)8-5(3)11/h2H,1H2,(H,9,10)(H2,7,8,11,12)",ZVGODTQUYAKZMK-UHFFFAOYSA-N,OC(=O)CC1=CNC(=O)NC1=O,-1.6287
2589,B-2590,"1,2-pentanediol, 1-phenyl-2-propyl-","InChI=1S/C14H22O2/c1-3-10-14(16,11-4-2)13(15)12-8-6-5-7-9-12/h5-9,13,15-16H,3-4,10-11H2,1-2H3",FGVUALJOVZKHOH-UHFFFAOYSA-N,CCCC(O)(CCC)C(O)c1ccccc1,-2.648
2590,B-2591,"1,2-hexanediol, 2-butyl-1phenyl-","InChI=1S/C16H26O2/c1-3-5-12-16(18,13-6-4-2)15(17)14-10-8-7-9-11-14/h7-11,15,17-18H,3-6,12-13H2,1-2H3",MGJOTHOXCFYBTC-UHFFFAOYSA-N,CCCCC(O)(CCCC)C(O)c1ccccc1,-3.2225
2591,B-2592,"pyridine, 2,3,4,6-tetramethyl-","InChI=1S/C9H13N/c1-6-5-7(2)10-9(4)8(6)3/h5H,1-4H3",QBSVEFGWBSANTE-UHFFFAOYSA-N,Cc1cc(C)c(C)c(C)n1,-1.3069
2592,B-2593,digoxin,"InChI=1S/C41H64O14/c1-19-36(47)28(42)15-34(50-19)54-38-21(3)52-35(17-30(38)44)55-37-20(2)51-33(16-29(37)43)53-24-8-10-39(4)23(13-24)6-7-26-27(39)14-31(45)40(5)25(9-11-41(26,40)48)22-12-32(46)49-18-22/h12,19-21,23-31,33-38,42-45,47-48H,6-11,13-18H2,1-5H3/t19-,20-,21-,23-,24+,25-,26-,27+,28+,29+,30+,31-,33+,34+,35+,36-,37-,38-,39+,40+,41+/m1/s1",LTMHDMANZUZIPE-PUGKRICDSA-N,C[C@H]1O[C@H](C[C@H](O)[C@@H]1O)O[C@H]2[C@@H](O)C[C@@H](O[C@@H]2C)O[C@H]3[C@@H](O)C[C@@H](O[C@@H]3C)O[C@H]4CC[C@@]5(C)[C@H](CC[C@@H]6[C@@H]5C[C@@H](O)[C@]7(C)[C@H](CC[C@]67O)C8=CC(=O)OC8)C4,-4.0811
2593,B-2594,chloraniformethane,"InChI=1S/C9H7Cl5N2O/c10-6-2-1-5(3-7(6)11)16-8(15-4-17)9(12,13)14/h1-4,8,16H,(H,15,17)",REEFSLKDEDEWAO-UHFFFAOYSA-N,Clc1ccc(NC(NC=O)C(Cl)(Cl)Cl)cc1Cl,-3.3228
2594,B-2595,"1,2,4-thiadiazolidine-3,5-dithione","InChI=1S/C2H2N2S3/c5-1-3-2(6)7-4-1/h(H2,3,4,5,6)",OTNSJAUBOYWVEB-UHFFFAOYSA-N,S=C1NSC(=S)N1,-1.7618
2595,B-2596,metribuzin,"InChI=1S/C8H14N4OS/c1-8(2,3)5-6(13)12(9)7(14-4)11-10-5/h9H2,1-4H3",FOXFZRUHNHCZPX-UHFFFAOYSA-N,CSC1=NN=C(C(=O)N1N)C(C)(C)C,-2.3098
2596,B-2597,tonalid,"InChI=1S/C18H26O/c1-11-8-16-15(9-14(11)13(3)19)17(4,5)10-12(2)18(16,6)7/h8-9,12H,10H2,1-7H3",DNRJTBAOUJJKDY-UHFFFAOYSA-N,CC1CC(C)(C)c2cc(C(C)=O)c(C)cc2C1(C)C,-5.3154
2597,B-2598,"1,3-benzenedicarboxylic acid, 2-nitro-","InChI=1S/C8H5NO6/c10-7(11)4-2-1-3-5(8(12)13)6(4)9(14)15/h1-3H,(H,10,11)(H,12,13)",CAHWDGJDQYAFHM-UHFFFAOYSA-N,OC(=O)c1cccc(C(O)=O)c1[N+]([O-])=O,-1.9901
2598,B-2599,prynachlor,"InChI=1S/C12H12ClNO/c1-3-10(2)14(12(15)9-13)11-7-5-4-6-8-11/h1,4-8,10H,9H2,2H3",DGPBHERUGBOSFZ-UHFFFAOYSA-N,CC(C#C)N(C(=O)CCl)c1ccccc1,-2.6468
2599,B-2600,"2-butanol, 3-chloro-2-methyl-","InChI=1S/C5H11ClO/c1-4(6)5(2,3)7/h4,7H,1-3H3",YYHQXKBKFKTDMP-UHFFFAOYSA-N,CC(Cl)C(C)(C)O,-0.2926
2600,B-2601,"4,6-dinitro-biphenyl-3-ol","InChI=1S/C12H8N2O5/c15-12-6-9(8-4-2-1-3-5-8)10(13(16)17)7-11(12)14(18)19/h1-7,15H",XIAPTRBHEBTAOZ-UHFFFAOYSA-N,Oc1cc(c2ccccc2)c(cc1[N+]([O-])=O)[N+]([O-])=O,-4.4611
2601,B-2602,fosthietan,"InChI=1S/C6H12NO3PS2/c1-3-9-11(8,10-4-2)7-6-12-5-13-6/h3-5H2,1-2H3",RHJOIOVESMTJEK-UHFFFAOYSA-N,CCO[P](=O)(OCC)N=C1SCS1,-0.6835
2602,B-2603,2-(thiocyanatemethylthio)benzothiazole,"InChI=1S/C9H6N2S3/c10-5-12-6-13-9-11-7-3-1-2-4-8(7)14-9/h1-4H,6H2",TUBQDCKAWGHZPF-UHFFFAOYSA-N,N#CSCSc1sc2ccccc2n1,-3.2803
2603,B-2604,"4-heptanol, 2-methyl-","InChI=1S/C8H18O/c1-4-5-8(9)6-7(2)3/h7-9H,4-6H2,1-3H3",QXPLZEKPCGUWEM-UHFFFAOYSA-N,CCCC(O)CC(C)C,-1.9079
2604,B-2605,"benzoic acid, 5-bromo-2-chloro-","InChI=1S/C7H4BrClO2/c8-4-1-2-6(9)5(3-4)7(10)11/h1-3H,(H,10,11)/p-1",FGERXQWKKIVFQG-UHFFFAOYSA-M,[O-]C(=O)c1cc(Br)ccc1Cl,-1.952
2605,B-2606,"2h-1,4-benzoxazin-3(4h)-one, 4-methyl-","InChI=1S/C9H9NO2/c1-10-7-4-2-3-5-8(7)12-6-9(10)11/h2-5H,6H2,1H3",DBJMEBUKQVZWMD-UHFFFAOYSA-N,CN1C(=O)COc2ccccc12,-2.1445
2606,B-2607,"acetic acid, 1-(3,4-dichlorophenyl)-2,2,2-trichl","InChI=1S/C10H7Cl5O2/c1-5(16)17-9(10(13,14)15)6-2-3-7(11)8(12)4-6/h2-4,9H,1H3",FSGNOVKGEXRRHD-UHFFFAOYSA-N,CC(=O)OC(c1ccc(Cl)c(Cl)c1)C(Cl)(Cl)Cl,-3.8279
2607,B-2608,di-sec-butanolamine,"InChI=1S/C8H19NO2/c1-3-7(10)5-9-6-8(11)4-2/h7-11H,3-6H2,1-2H3",KQIXMZWXFFHRAQ-UHFFFAOYSA-N,CCC(O)CNCC(O)CC,0.7925
2608,B-2609,isopentyl nitrate,"InChI=1S/C5H11NO3/c1-3-4-5(2)9-6(7)8/h5H,3-4H2,1-2H3",RWRBSYOTDDOXKC-UHFFFAOYSA-N,CCCC(C)O[N+]([O-])=O,-2.4809
2609,B-2610,cartap hydrochloride,"InChI=1S/C7H15N3O2S2.ClH/c1-10(2)5(3-13-6(8)11)4-14-7(9)12;/h5H,3-4H2,1-2H3,(H2,8,11)(H2,9,12);1H",MSHXTAQSSIEBQS-UHFFFAOYSA-N,[Cl-].C[NH+](C)C(CSC(N)=O)CSC(N)=O,-0.1364
2610,B-2611,"1,2,3-thiadiazole-4-carboxylic acid, 5-methyl-","InChI=1S/C4H4N2O2S/c1-2-3(4(7)8)5-6-9-2/h1H3,(H,7,8)",ZLJIFINJKVSIRN-UHFFFAOYSA-N,Cc1snnc1C(O)=O,-0.4598
2611,B-2612,biopterin,"InChI=1S/C9H11N5O3/c1-3(15)6(16)4-2-11-7-5(12-4)8(17)14-9(10)13-7/h2-3,6,15-16H,1H3,(H3,10,11,13,14,17)",LHQIJBMDNUYRAM-UHFFFAOYSA-N,CC(O)C(O)c1cnc2NC(=NC(=O)c2n1)N,-2.5301
2612,B-2613,benzoylprop ethyl,"InChI=1S/C18H17Cl2NO3/c1-3-24-18(23)12(2)21(14-9-10-15(19)16(20)11-14)17(22)13-7-5-4-6-8-13/h4-12H,3H2,1-2H3",SLCGUGMPSUYJAY-UHFFFAOYSA-N,CCOC(=O)C(C)N(C(=O)c1ccccc1)c2ccc(Cl)c(Cl)c2,-4.2627
2613,B-2614,tetrachlorvinphos,"InChI=1S/C10H9Cl4O4P/c1-16-19(15,17-2)18-10(5-11)6-3-8(13)9(14)4-7(6)12/h3-5H,1-2H3/b10-5+",UBCKGWBNUIFUST-BJMVGYQFSA-N,CO[P](=O)(OC)OC(=C/Cl)/c1cc(Cl)c(Cl)cc1Cl,-4.5221
2614,B-2615,"acetamide, n-(4-ethoxyphenyl)-2-hydroxy-","InChI=1S/C10H13NO3/c1-2-14-9-5-3-8(4-6-9)11-10(13)7-12/h3-6,12H,2,7H2,1H3,(H,11,13)",UJUHYRDNSIRHHG-UHFFFAOYSA-N,CCOc1ccc(NC(=O)CO)cc1,-2.1058
2615,B-2616,"acetic acid, bis(2-carboxyphenyl)-","InChI=1S/C16H12O6/c17-14(18)11-7-3-1-5-9(11)13(16(21)22)10-6-2-4-8-12(10)15(19)20/h1-8,13H,(H,17,18)(H,19,20)(H,21,22)",AOTLXSIYOKZSAI-UHFFFAOYSA-N,OC(=O)C(c1ccccc1C(O)=O)c2ccccc2C(O)=O,-2.4998
2616,B-2617,"methanesulfonamide, n-phenyl-n-((1,1,2,2-tetrach","InChI=1S/C9H8Cl4FNO2S2/c1-19(16,17)15(7-5-3-2-4-6-7)18-9(12,13)8(10,11)14/h2-6H,1H3",SVIKNKPDPGCMAE-UHFFFAOYSA-N,C[S](=O)(=O)N(SC(Cl)(Cl)C(F)(Cl)Cl)c1ccccc1,-5.1485
2617,B-2618,"benzenepropanoic acid, 2-nitro-.beta.-oxo-","InChI=1S/C9H7NO5/c11-8(5-9(12)13)6-3-1-2-4-7(6)10(14)15/h1-4H,5H2,(H,12,13)",PJDGOXXKHPBMQA-UHFFFAOYSA-N,OC(=O)CC(=O)c1ccccc1[N+]([O-])=O,-1.8434
2618,B-2619,bendiocarb,"InChI=1S/C11H13NO4/c1-11(2)15-8-6-4-5-7(9(8)16-11)14-10(13)12-3/h4-6H,1-3H3,(H,12,13)",XEGGRYVFLWGFHI-UHFFFAOYSA-N,CNC(=O)Oc1cccc2OC(C)(C)Oc12,-2.9338
2619,B-2620,anisomycin,"InChI=1S/C14H19NO4/c1-9(16)19-14-12(15-8-13(14)17)7-10-3-5-11(18-2)6-4-10/h3-6,12-15,17H,7-8H2,1-2H3/t12-,13+,14+/m0/s1",YKJYKKNCCRKFSL-BFHYXJOUSA-N,COc1ccc(C[C@@H]2NC[C@@H](O)[C@@H]2OC(C)=O)cc1,-1.6075
2620,B-2621,"propanoic acid, 2,2,3,3-tetrafluoro-, sodium sal","InChI=1S/C3H2F4O2.Na/c4-1(5)3(6,7)2(8)9;/h1H,(H,8,9);/q;+1/p-1",SGUSXTMVKMPQKI-UHFFFAOYSA-M,[Na+].[O-]C(=O)C(F)(F)C(F)F,-0.8829
2621,B-2622,dimethamrtryne,"InChI=1S/C11H21N5S/c1-6-12-9-14-10(13-8(4)7(2)3)16-11(15-9)17-5/h7-8H,6H2,1-5H3,(H2,12,13,14,15,16)",IKYICRRUVNIHPP-UHFFFAOYSA-N,CCNc1nc(NC(C)C(C)C)nc(SC)n1,-3.7082
2622,B-2623,cyprazine,"InChI=1S/C9H14ClN5/c1-5(2)11-8-13-7(10)14-9(15-8)12-6-3-4-6/h5-6H,3-4H2,1-2H3,(H2,11,12,13,14,15)",OOHIAOSLOGDBCE-UHFFFAOYSA-N,CC(C)Nc1nc(Cl)nc(NC2CC2)n1,-3.5185
2623,B-2624,prallethrin,"InChI=1S/C19H24O3/c1-7-8-13-12(4)16(10-15(13)20)22-18(21)17-14(9-11(2)3)19(17,5)6/h1,9,14,16-17H,8,10H2,2-6H3/t14-,16?,17+/m0/s1",SMKRKQBMYOFFMU-DRXWIORDSA-N,CC(C)=C[C@H]1[C@H](C(=O)OC2CC(=O)C(=C2C)CC#C)C1(C)C,-4.5746
2624,B-2625,"1h-purine-2,6-dione, 7-ethyl-3,7-dihydro-1,3-dim","InChI=1S/C9H12N4O2/c1-4-13-5-10-7-6(13)8(14)12(3)9(15)11(7)2/h5H,4H2,1-3H3",RPOQNHMXOPWCEK-UHFFFAOYSA-N,CCn1cnc2N(C)C(=O)N(C)C(=O)c12,-0.7544
2625,B-2626,pirimicarb,InChI=1S/C11H18N4O2/c1-7-8(2)12-10(14(3)4)13-9(7)17-11(16)15(5)6/h1-6H3,YFGYUFNIOHWBOB-UHFFFAOYSA-N,CN(C)C(=O)Oc1nc(nc(C)c1C)N(C)C,-1.9457
2626,B-2627,oxamyl,"InChI=1S/C7H13N3O3S/c1-8-7(12)13-9-5(14-4)6(11)10(2)3/h1-4H3,(H,8,12)/b9-5-",KZAUOCCYDRDERY-UITAMQMPSA-N,CNC(=O)O\N=C(SC)\C(=O)N(C)C,0.1062
2627,B-2628,"1h-purine-2,6-dione, 3,7-dihydro-7-(3-hydroxypro","InChI=1S/C10H14N4O3/c1-12-8-7(9(16)13(2)10(12)17)14(6-11-8)4-3-5-15/h6,15H,3-5H2,1-2H3",QCGRMMZPZDAITA-UHFFFAOYSA-N,CN1C(=O)N(C)c2ncn(CCCO)c2C1=O,-0.1551
2628,B-2629,di(trimethylolpropane),"InChI=1S/C12H26O5/c1-3-11(5-13,6-14)9-17-10-12(4-2,7-15)8-16/h13-16H,3-10H2,1-2H3",WMYINDVYGQKYMI-UHFFFAOYSA-N,CCC(CO)(CO)COCC(CC)(CO)CO,-0.9836
2629,B-2630,formetanate hydrochloride,"InChI=1S/C11H15N3O2.ClH/c1-12-11(15)16-10-6-4-5-9(7-10)13-8-14(2)3;/h4-8H,1-3H3,(H,12,15);1H",MYPKGPZHHQEODQ-UHFFFAOYSA-N,[H+].[Cl-].CNC(=O)Oc1cccc(c1)N=CN(C)C,0.5037
2630,B-2631,pirimiphos ethyl,"InChI=1S/C13H24N3O3PS/c1-6-16(7-2)13-14-11(5)10-12(15-13)19-20(21,17-8-3)18-9-4/h10H,6-9H2,1-5H3",TZBPRYIIJAJUOY-UHFFFAOYSA-N,CCO[P](=S)(OCC)Oc1cc(C)nc(n1)N(CC)CC,-4.9242
2631,B-2632,heptenophos,"InChI=1S/C9H12ClO4P/c1-12-15(11,13-2)14-9-7-5-3-4-6(7)8(9)10/h3-4,6-7H,5H2,1-2H3",GBAWQJNHVWMTLU-UHFFFAOYSA-N,CO[P](=O)(OC)OC1=C(Cl)C2C=CCC12,-2.0011
2632,B-2633,thiophanate-methyl,"InChI=1S/C12H14N4O4S2/c1-19-11(17)15-9(21)13-7-5-3-4-6-8(7)14-10(22)16-12(18)20-2/h3-6H,1-2H3,(H2,13,15,17,21)(H2,14,16,18,22)",QGHREAKMXXNCOA-UHFFFAOYSA-N,COC(=O)NC(=S)Nc1ccccc1NC(=S)NC(=O)OC,-4.1097
2633,B-2634,"octanedioic acid, 3,3,6,6-tetramethyl-","InChI=1S/C12H22O4/c1-11(2,7-9(13)14)5-6-12(3,4)8-10(15)16/h5-8H2,1-4H3,(H,13,14)(H,15,16)",XCPSWBNEOGUWCT-UHFFFAOYSA-N,CC(C)(CCC(C)(C)CC(O)=O)CC(O)=O,-3.1319
2634,B-2635,n-hexyl nicotinoate,"InChI=1S/C12H17NO2/c1-2-3-4-5-9-15-12(14)11-7-6-8-13-10-11/h6-8,10H,2-5,9H2,1H3",RVYGVBZGSFLJKH-UHFFFAOYSA-N,CCCCCCOC(=O)c1cccnc1,-2.6538
2635,B-2636,"phosphonic acid, (1,6-hexanediylbis(nitrilobis(m","InChI=1S/C10H28N2O12P4/c13-25(14,15)7-11(8-26(16,17)18)5-3-1-2-4-6-12(9-27(19,20)21)10-28(22,23)24/h1-10H2,(H2,13,14,15)(H2,16,17,18)(H2,19,20,21)(H2,22,23,24)",KIDJHPQACZGFTI-UHFFFAOYSA-N,O[P](O)(=O)CN(CCCCCCN(C[P](O)(O)=O)C[P](O)(O)=O)C[P](O)(O)=O,-1.5161
2636,B-2637,"1h-purin-8-amine, n,n-dimethyl-","InChI=1S/C7H9N5/c1-12(2)7-10-5-3-8-4-9-6(5)11-7/h3-4H,1-2H3,(H,8,9,10,11)",WNLBOWJFJNZYPN-UHFFFAOYSA-N,CN(C)c1[nH]c2cncnc2n1,-1.3885
2637,B-2638,"pteridine, 2,6,7-trimethyl-","InChI=1S/C9H10N4/c1-5-6(2)12-9-8(11-5)4-10-7(3)13-9/h4H,1-3H3",ZGWOCNDIGLJDDX-UHFFFAOYSA-N,Cc1ncc2nc(C)c(C)nc2n1,-1.1442
2638,B-2639,"d-glucose, (aminocarbonyl)hydrazone","InChI=1S/C7H15N3O6/c8-7(16)10-9-1-3(12)5(14)6(15)4(13)2-11/h1,3-6,11-15H,2H2,(H3,8,10,16)/t3-,4+,5+,6+/m0/s1",NOUQGOYNEGWDCZ-SLPGGIOYSA-N,NC(=O)NN=C[C@H](O)[C@@H](O)[C@H](O)[C@H](O)CO,-1.0041
2639,B-2640,"5-pyrimidinecarboxylic acid, 1,2,3,4-tetrahydro-","InChI=1S/C5H4N2O4/c8-3-2(4(9)10)1-6-5(11)7-3/h1H,(H,9,10)(H2,6,7,8,11)",ZXYAAVBXHKCJJB-UHFFFAOYSA-N,OC(=O)C1=CNC(=O)NC1=O,-1.9381
2640,B-2641,pronamide,"InChI=1S/C12H11Cl2NO/c1-4-12(2,3)15-11(16)8-5-9(13)7-10(14)6-8/h1,5-7H,2-3H3,(H,15,16)",PHNUZKMIPFFYSO-UHFFFAOYSA-N,CC(C)(NC(=O)c1cc(Cl)cc(Cl)c1)C#C,-4.2324
2641,B-2642,triazophos,"InChI=1S/C12H16N3O3PS/c1-3-16-19(20,17-4-2)18-12-13-10-15(14-12)11-8-6-5-7-9-11/h5-10H,3-4H2,1-2H3",AMFGTOFWMRQMEM-UHFFFAOYSA-N,CCO[P](=S)(OCC)Oc1ncn(n1)c2ccccc2,-3.9049
2642,B-2643,"naphtho[2,3-c]furan-1(3h)-one, 3,3-dimethyl-","InChI=1S/C14H12O2/c1-14(2)12-8-10-6-4-3-5-9(10)7-11(12)13(15)16-14/h3-8H,1-2H3",RCRSAOBHVMTZFO-UHFFFAOYSA-N,CC1(C)OC(=O)c2cc3ccccc3cc12,-2.9844
2643,B-2644,2-methyl-4-bromoacetanilide,"InChI=1S/C9H10BrNO/c1-6-5-8(10)3-4-9(6)11-7(2)12/h3-5H,1-2H3,(H,11,12)",IJZSFOIZVXCSFP-UHFFFAOYSA-N,CC(=O)Nc1ccc(Br)cc1C,-1.756
2644,B-2645,"acetamide-2-chloro-n-(2,6-dimethylphenyl)-n-((2-","InChI=1S/C15H22ClNO2/c1-11(2)9-19-10-17(14(18)8-16)15-12(3)6-5-7-13(15)4/h5-7,11H,8-10H2,1-4H3",BIQOEDQVNIYWPQ-UHFFFAOYSA-N,CC(C)COCN(C(=O)CCl)c1c(C)cccc1C,-3.6822
2645,B-2646,fenfuram,"InChI=1S/C12H11NO2/c1-9-11(7-8-15-9)12(14)13-10-5-3-2-4-6-10/h2-8H,1H3,(H,13,14)",JFSPBVWPKOEZCB-UHFFFAOYSA-N,Cc1occc1C(=O)Nc2ccccc2,-3.3037
2646,B-2647,"hexanedioic acid, 3-butyl-","InChI=1S/C10H18O4/c1-2-3-4-8(7-10(13)14)5-6-9(11)12/h8H,2-7H2,1H3,(H,11,12)(H,13,14)",SYBIZQPCZZHMNO-UHFFFAOYSA-N,CCCCC(CCC(O)=O)CC(O)=O,-1.3974
2647,B-2648,"4(3h)-pteridinone, 3-methyl-","InChI=1S/C7H6N4O/c1-11-4-10-6-5(7(11)12)8-2-3-9-6/h2-4H,1H3",ADZLJYXPHYDHJU-UHFFFAOYSA-N,CN1C=Nc2nccnc2C1=O,-1.0549
2648,B-2649,"cyclopentaneacetic acid, 3-oxo-2-pentyl-, methyl","InChI=1S/C13H22O3/c1-3-4-5-6-11-10(7-8-12(11)14)9-13(15)16-2/h10-11H,3-9H2,1-2H3",KVWWIYGFBYDJQC-UHFFFAOYSA-N,CCCCCC1C(CCC1=O)CC(=O)OC,-2.9076
2649,B-2650,"4(1h)-pteridinone, 6,7-diphenyl-","InChI=1S/C18H12N4O/c23-18-16-17(19-11-20-18)22-15(13-9-5-2-6-10-13)14(21-16)12-7-3-1-4-8-12/h1-11H,(H,19,20,22,23)",UMUYUDSQRKTBKA-UHFFFAOYSA-N,O=C1N=CNc2nc(c3ccccc3)c(nc12)c4ccccc4,-3.1766
2650,B-2651,"phenol, 2-iodo-6-methyl-","InChI=1S/C7H7IO/c1-5-3-2-4-6(8)7(5)9/h2-4,9H,1H3",GZZUGNNHSZONTO-UHFFFAOYSA-N,Cc1cccc(I)c1O,-1.8378
2651,B-2652,"2,5-dichlorodiphenyl ether",InChI=1S/C12H8Cl2O/c13-9-6-7-11(14)12(8-9)15-10-4-2-1-3-5-10/h1-8H,VITXVDNQHXYQSK-UHFFFAOYSA-N,Clc1ccc(Cl)c(Oc2ccccc2)c1,-4.9703
2652,B-2653,"3,4',5-trichlorodiphenyl ether",InChI=1S/C12H7Cl3O/c13-8-1-3-11(4-2-8)16-12-6-9(14)5-10(15)7-12/h1-7H,CCEZFZGXWFJQEF-UHFFFAOYSA-N,Clc1ccc(Oc2cc(Cl)cc(Cl)c2)cc1,-5.5201
2653,B-2654,chlormephos,"InChI=1S/C5H12ClO2PS2/c1-3-7-9(10,8-4-2)11-5-6/h3-5H2,1-2H3",QGTYWWGEWOBMAK-UHFFFAOYSA-N,CCO[P](=S)(OCC)SCCl,-3.5924
2654,B-2655,benazolin-ethyl,"InChI=1S/C11H10ClNO3S/c1-2-16-9(14)6-13-10-7(12)4-3-5-8(10)17-11(13)15/h3-5H,2,6H2,1H3",WQRCEBAZAUAUQC-UHFFFAOYSA-N,CCOC(=O)CN1C(=O)Sc2cccc(Cl)c12,-3.762
2655,B-2656,"acetic acid, (2,4-dinitrophenoxy)-","InChI=1S/C8H6N2O7/c11-8(12)4-17-7-2-1-5(9(13)14)3-6(7)10(15)16/h1-3H,4H2,(H,11,12)",OWEDBRWCJFWVFZ-UHFFFAOYSA-N,OC(=O)COc1ccc(cc1[N+]([O-])=O)[N+]([O-])=O,-1.9369
2656,B-2657,p-i-propyltoluene,"InChI=1S/C10H14/c1-8(2)10-7-5-4-6-9(10)3/h4-8H,1-3H3",WWRCMNKATXZARA-UHFFFAOYSA-N,CC(C)c1ccccc1C,-3.7595
2657,B-2658,"2,4-d, isooctyl ester","InChI=1S/C16H22Cl2O3/c1-3-5-6-12(4-2)10-21-16(19)11-20-15-8-7-13(17)9-14(15)18/h7-9,12H,3-6,10-11H2,1-2H3",QZSFJRIWRPJUOH-UHFFFAOYSA-N,CCCCC(CC)COC(=O)COc1ccc(Cl)cc1Cl,-7.0122
2658,B-2659,hexene - mixture of isomers,"InChI=1S/C6H12/c1-3-5-6-4-2/h3,5H,4,6H2,1-2H3/b5-3+",RYPKRALMXUUNKS-HWKANZROSA-N,CCC\C=C\C,-3.2262
2659,B-2660,dipropylene glycol,"InChI=1S/C6H14O3/c1-3-5(7)9-6(8)4-2/h5-8H,3-4H2,1-2H3",QYSXYAURTRCDJU-UHFFFAOYSA-N,CCC(O)OC(O)CC,0.8723
2660,B-2661,"benzenesulfonamide, 4-(mannopyranosylamino)-","InChI=1S/C12H18N2O7S/c13-22(19,20)7-3-1-6(2-4-7)14-12-11(18)10(17)9(16)8(5-15)21-12/h1-4,8-12,14-18H,5H2,(H2,13,19,20)/t8-,9-,10+,11+,12?/m1/s1",RMCYKIOWPVOBJX-IKQSSVLVSA-N,N[S](=O)(=O)c1ccc(NC2O[C@H](CO)[C@@H](O)[C@H](O)[C@@H]2O)cc1,-0.9801
2661,B-2662,mcpa-thioethyl,"InChI=1S/C11H13ClO2S/c1-3-15-11(13)7-14-10-5-4-9(12)6-8(10)2/h4-6H,3,7H2,1-2H3",AZFKQCNGMSSWDS-UHFFFAOYSA-N,CCSC(=O)COc1ccc(Cl)cc1C,-5.027
2662,B-2663,1-<hydroxyimino-(seqtrans)>-1-phenyl-acetone,"InChI=1S/C9H9NO2/c1-7(11)9(10-12)8-5-3-2-4-6-8/h2-6,12H,1H3/b10-9+",YQHWURFNAULYNW-MDZDMXLPSA-N,CC(=O)C(=N\O)/c1ccccc1,-2.3676
2663,B-2664,thiazafluron,"InChI=1S/C6H7F3N4OS/c1-10-4(14)13(2)5-12-11-3(15-5)6(7,8)9/h1-2H3,(H,10,14)",BBJPZPLAZVZTGR-UHFFFAOYSA-N,CNC(=O)N(C)c1sc(nn1)C(F)(F)F,-2.0584
2664,B-2665,"1,2-dibromoethene",InChI=1S/C2H2Br2/c3-1-2-4/h1-2H/b2-1+,UWTUEMKLYAGTNQ-OWOJBTEDSA-N,Br\C=C\Br,-1.7415
2665,B-2666,hydroxycinnamic acid,"InChI=1S/C9H8O3/c10-8-3-1-2-7(6-8)4-5-9(11)12/h1-6,10H,(H,11,12)/b5-4-",KKSDGJDHHZEWEP-PLNGDYQASA-N,OC(=O)\C=C/c1cccc(O)c1,-2.099
2666,B-2667,dowanol tpm,"InChI=1S/C10H22O4/c1-8(5-11)14-10(3)7-13-9(2)6-12-4/h8-11H,5-7H2,1-4H3",GVZNXUAPPLHUOM-UHFFFAOYSA-N,COCC(C)OCC(C)OC(C)CO,0.6855
2667,B-2668,isopropylbiphenyl,"InChI=1S/C15H16/c1-12(2)13-8-10-15(11-9-13)14-6-4-3-5-7-14/h3-12H,1-2H3",KWSHGRJUSUJPQD-UHFFFAOYSA-N,CC(C)c1ccc(cc1)c2ccccc2,-5.5147
2668,B-2669,fosamine ammonium salt,"InChI=1S/C3H8NO4P.H3N/c1-2-8-9(6,7)3(4)5;/h2H2,1H3,(H2,4,5)(H,6,7);1H3",OTSAMNSACVKIOJ-UHFFFAOYSA-N,[NH4+].CCO[P]([O-])(=O)C(N)=O,0.7693
2669,B-2670,phenothrin,"InChI=1S/C23H26O3/c1-16(2)13-20-21(23(20,3)4)22(24)25-15-17-9-8-12-19(14-17)26-18-10-6-5-7-11-18/h5-14,20-21H,15H2,1-4H3",SBNFWQZLDJGRLK-UHFFFAOYSA-N,CC(C)=CC1C(C(=O)OCc2cccc(Oc3ccccc3)c2)C1(C)C,-7.5579
2670,B-2671,"1,4-naphthalenedione, 2-(methylthio)-","InChI=1S/C11H8O2S/c1-14-10-6-9(12)7-4-2-3-5-8(7)11(10)13/h2-6H,1H3",GGFFBRRZAKLGFX-UHFFFAOYSA-N,CSC1=CC(=O)c2ccccc2C1=O,-4.4651
2671,B-2672,ethofumesate,"InChI=1S/C13H18O5S/c1-5-16-12-13(2,3)10-8-9(18-19(4,14)15)6-7-11(10)17-12/h6-8,12H,5H2,1-4H3",IRCMYGHHKLLGHV-UHFFFAOYSA-N,CCOC1Oc2ccc(O[S](C)(=O)=O)cc2C1(C)C,-3.7579
2672,B-2673,secbumeton,"InChI=1S/C10H19N5O/c1-5-7(3)12-9-13-8(11-6-2)14-10(15-9)16-4/h7H,5-6H2,1-4H3,(H2,11,12,13,14,15)",ZJMZZNVGNSWOOM-UHFFFAOYSA-N,CCNc1nc(NC(C)CC)nc(OC)n1,-2.5604
2673,B-2674,profluralin,"InChI=1S/C14H16F3N3O4/c1-2-5-18(8-9-3-4-9)13-11(19(21)22)6-10(14(15,16)17)7-12(13)20(23)24/h6-7,9H,2-5,8H2,1H3",ITVQAKZNYJEWKS-UHFFFAOYSA-N,CCCN(CC1CC1)c2c(cc(cc2[N+]([O-])=O)C(F)(F)F)[N+]([O-])=O,-6.5407
2674,B-2675,tirpate,"InChI=1S/C8H14N2O2S2/c1-6-4-13-8(2,14-6)5-10-12-7(11)9-3/h5-6H,4H2,1-3H3,(H,9,11)/b10-5+",GHFMMRFMDHDOBP-BJMVGYQFSA-N,CNC(=O)O/N=C/C1(C)SCC(C)S1,-2.3698
2675,B-2676,cresyl diphenyl phosphate,"InChI=1S/C19H17O4P/c1-16-12-14-19(15-13-16)23-24(20,21-17-8-4-2-5-9-17)22-18-10-6-3-7-11-18/h2-15H,1H3",OJUZRFGUKHQNJX-UHFFFAOYSA-N,Cc1ccc(O[P](=O)(Oc2ccccc2)Oc3ccccc3)cc1,-6.1517
2676,B-2677,"phosphoric acid, bis(methylphenyl) phenyl ester","InChI=1S/C20H19O4P/c1-16-12-14-19(15-13-16)23-25(21,22-18-9-4-3-5-10-18)24-20-11-7-6-8-17(20)2/h3-15H,1-2H3",DAZHWGHCARQALS-UHFFFAOYSA-N,Cc1ccc(O[P](=O)(Oc2ccccc2)Oc3ccccc3C)cc1,-6.3733
2677,B-2678,"3(2h)-isothiazolone, 2-octyl-","InChI=1S/C11H19NOS/c1-2-3-4-5-6-7-9-12-11(13)8-10-14-12/h8,10H,2-7,9H2,1H3",JPMIIZHYYWMHDT-UHFFFAOYSA-N,CCCCCCCCN1SC=CC1=O,-2.6301
2678,B-2679,hexachlorobiphenyl,InChI=1S/C12H4Cl6/c13-6-4-2-1-3-5(6)7-8(14)10(16)12(18)11(17)9(7)15/h1-4H,RUEIBQJFGMERJD-UHFFFAOYSA-N,Clc1ccccc1c2c(Cl)c(Cl)c(Cl)c(Cl)c2Cl,-8.0133
2679,B-2680,"phosphoric acid, diethyl 2-methylpropyl ester","InChI=1S/C8H19O4P/c1-5-10-13(9,11-6-2)12-7-8(3)4/h8H,5-7H2,1-4H3",VAUVEZMZAPNZOT-UHFFFAOYSA-N,CCO[P](=O)(OCC)OCC(C)C,-1.1765
2680,B-2681,"pentanoic acid, 4-oxo-3-(phenylmethylene)-","InChI=1S/C12H12O3/c1-9(13)11(8-12(14)15)7-10-5-3-2-4-6-10/h2-7H,8H2,1H3,(H,14,15)",BNQYXFAVUMPZFG-UHFFFAOYSA-N,CC(=O)C(CC(O)=O)=Cc1ccccc1,-1.6111
2681,B-2682,mevinphos,"InChI=1S/C7H13O6P/c1-6(5-7(8)10-2)13-14(9,11-3)12-4/h5H,1-4H3/b6-5+",GEPDYQSQVLXLEU-AATRIKPKSA-N,COC(=O)\C=C(/C)O[P](=O)(OC)OC,0.6495
2682,B-2683,"4(1h)-pyrimidinone, 5-bromo-2-phenyl-","InChI=1S/C10H7BrN2O/c11-8-6-12-9(13-10(8)14)7-4-2-1-3-5-7/h1-6H,(H,12,13,14)",MWZGHIGOSHTXGY-UHFFFAOYSA-N,BrC1=CNC(=NC1=O)c2ccccc2,-3.4792