,ID,Name,InChI,InChIKey,SMILES,Solubility
0,B-1,3-pentyl nitrate,"InChI=1S/C5H11NO3/c1-3-5(4-2)9-6(7)8/h5H,3-4H2,1-2H3",WQZKKVJFBZPJSU-UHFFFAOYSA-N,CCC(CC)O[N+]([O-])=O,-2.4522
1,B-2,5-bromo-3-hydroxybenzaldehyde,"InChI=1S/C7H5BrO2/c8-6-1-5(4-9)2-7(10)3-6/h1-4,10H",XVFGERBEZKEGSS-UHFFFAOYSA-N,Oc1cc(Br)cc(C=O)c1,-3.2502
2,B-3,meperidine,"InChI=1S/C15H21NO2.ClH/c1-3-18-14(17)15(9-11-16(2)12-10-15)13-7-5-4-6-8-13;/h4-8H,3,9-12H2,1-2H3;1H",WCNLCIJMFAJCPX-UHFFFAOYSA-N,[H+].[Cl-].CCOC(=O)C1(CCN(C)CC1)c2ccccc2,-1.6368
3,B-4,hydroxyphenamate,"InChI=1S/C11H15NO3/c1-2-11(14,8-15-10(12)13)9-6-4-3-5-7-9/h3-7,14H,2,8H2,1H3,(H2,12,13)",WAFIYOULDIWAKR-UHFFFAOYSA-N,CCC(O)(COC(N)=O)c1ccccc1,-0.9227
4,B-5,lactic acid,"InChI=1S/C3H6O3/c1-2(4)3(5)6/h2,4H,1H3,(H,5,6)",JVTAAEKCZFNVCJ-UHFFFAOYSA-N,CC(O)C(O)=O,1.0454
5,B-6,estradiol,"InChI=1S/C18H24O2/c1-18-9-8-14-13-5-3-12(19)10-11(13)2-4-15(14)16(18)6-7-17(18)20/h3,5,10,14-17,19-20H,2,4,6-9H2,1H3/t14-,15-,16+,17+,18+/m1/s1",VOXZDWNPVJITMN-ZBRFXRBCSA-N,C[C@]12CC[C@H]3[C@@H](CCc4cc(O)ccc34)[C@@H]1CC[C@@H]2O,-4.8789
6,B-7,"2,6-dichlorobenzoic acid","InChI=1S/C7H4Cl2O2/c8-4-2-1-3-5(9)6(4)7(10)11/h1-3H,(H,10,11)",MRUDNSFOFOQZDA-UHFFFAOYSA-N,OC(=O)c1c(Cl)cccc1Cl,-1.1309
7,B-8,"2,3,6-trichlorobenzoic acid","InChI=1S/C7H3Cl3O2/c8-3-1-2-4(9)6(10)5(3)7(11)12/h1-2H,(H,11,12)",XZIDTOHMJBOSOX-UHFFFAOYSA-N,OC(=O)c1c(Cl)ccc(Cl)c1Cl,-1.4666
8,B-9,thalidomide,"InChI=1S/C13H10N2O4/c16-10-6-5-9(11(17)14-10)15-12(18)7-3-1-2-4-8(7)13(15)19/h1-4,9H,5-6H2,(H,14,16,17)",UEJJHQNACJXSKW-UHFFFAOYSA-N,O=C1CCC(N2C(=O)c3ccccc3C2=O)C(=O)N1,-2.6758
9,B-10,6-purinethiol hydrate,"InChI=1S/C5H4N4S/c10-5-3-4(7-1-6-3)8-2-9-5/h1-2H,(H2,6,7,8,9,10)",GLVAUDGFNGKCSF-UHFFFAOYSA-N,S=C1N=CNc2nc[nH]c12,-0.3468
10,B-11,desipramine,"InChI=1S/C18H22N2/c1-19-13-6-14-20-17-9-4-2-7-15(17)11-12-16-8-3-5-10-18(16)20/h2-5,7-10,19H,6,11-14H2,1H3",HCYAFALTSJYZDH-UHFFFAOYSA-N,CNCCCN1c2ccccc2CCc3ccccc13,-3.6576
11,B-12,amitryptyline,"InChI=1S/C20H23N/c1-21(2)15-7-12-20-18-10-5-3-8-16(18)13-14-17-9-4-6-11-19(17)20/h3-6,8-12H,7,13-15H2,1-2H3",KRMDCWKBEZIMAB-UHFFFAOYSA-N,CN(C)CCC=C1c2ccccc2CCc3ccccc13,-4.4559
12,B-13,reserpine,"InChI=1S/C33H40N2O9/c1-38-19-7-8-20-21-9-10-35-16-18-13-27(44-32(36)17-11-25(39-2)30(41-4)26(12-17)40-3)31(42-5)28(33(37)43-6)22(18)15-24(35)29(21)34-23(20)14-19/h7-8,11-12,14,18,22,24,27-28,31,34H,9-10,13,15-16H2,1-6H3/t18-,22+,24-,27-,28+,31+/m1/s1",QEVHRUUCFGRFIF-MDEJGZGSSA-N,CO[C@H]1[C@@H](C[C@@H]2CN3CCc4c([nH]c5cc(OC)ccc45)[C@H]3C[C@@H]2[C@@H]1C(=O)OC)OC(=O)c6cc(OC)c(OC)c(OC)c6,-3.9208
13,B-14,niclosamide,"InChI=1S/C13H8Cl2N2O4/c14-7-1-4-12(18)9(5-7)13(19)16-11-3-2-8(17(20)21)6-10(11)15/h1-6,18H,(H,16,19)",RJMUSRYZPJIFPJ-UHFFFAOYSA-N,Oc1ccc(Cl)cc1C(=O)Nc2ccc(cc2Cl)[N+]([O-])=O,-5.3106
14,B-15,5-hydroxytryptamine,"InChI=1S/C10H12N2O/c11-4-3-7-6-12-10-2-1-8(13)5-9(7)10/h1-2,5-6,12-13H,3-4,11H2",QZAYGJVTTNCVMB-UHFFFAOYSA-N,NCCc1c[nH]c2ccc(O)cc12,-0.945
15,B-16,sorbitol,"InChI=1S/C6H14O6/c7-1-3(9)5(11)6(12)4(10)2-8/h3-12H,1-2H2",FBPFZTCFMRRESA-UHFFFAOYSA-N,OCC(O)C(O)C(O)C(O)CO,1.1789
16,B-17,"2,4,5-trichlorobenzoic acid","InChI=1S/C7H3Cl3O2/c8-4-2-6(10)5(9)1-3(4)7(11)12/h1-2H,(H,11,12)",PTFNNDHASFGWFI-UHFFFAOYSA-N,OC(=O)c1cc(Cl)c(Cl)cc1Cl,-2.4446
17,B-18,"2,4-dichlorobenzoic acid","InChI=1S/C7H4Cl2O2/c8-4-1-2-5(7(10)11)6(9)3-4/h1-3H,(H,10,11)",ATCRIUVQKHMXSH-UHFFFAOYSA-N,OC(=O)c1ccc(Cl)cc1Cl,-2.6003
18,B-19,glucose,"InChI=1S/C6H12O6/c7-1-2-3(8)4(9)5(10)6(11)12-2/h2-11H,1H2",WQZGKKKJIJFFOK-UHFFFAOYSA-N,OCC1OC(O)C(O)C(O)C1O,0.8235
19,B-20,piperonyl butoxide,"InChI=1S/C19H30O5/c1-3-5-7-20-8-9-21-10-11-22-14-17-13-19-18(23-15-24-19)12-16(17)6-4-2/h12-13H,3-11,14-15H2,1-2H3",FIPWRIJSWJWJAI-UHFFFAOYSA-N,CCCCOCCOCCOCc1cc2OCOc2cc1CCC,-4.3742
20,B-21,benzimidazole,"InChI=1S/C7H6N2/c1-2-4-7-6(3-1)8-5-9-7/h1-5H,(H,8,9)",HYZJCKYKOHLVJF-UHFFFAOYSA-N,[nH]1cnc2ccccc12,-1.7701
21,B-22,5-bromouracil,"InChI=1S/C4H3BrN2O2/c5-2-1-6-4(9)7-3(2)8/h1H,(H2,6,7,8,9)",LQLQRFGHAALLLE-UHFFFAOYSA-N,BrC1=CNC(=O)NC1=O,-2.3698
22,B-23,scopolamine,"InChI=1S/C17H21NO4/c1-18-13-7-11(8-14(18)16-15(13)22-16)21-17(20)12(9-19)10-5-3-2-4-6-10/h2-6,11-16,19H,7-9H2,1H3/t11?,12-,13-,14+,15?,16?/m1/s1",STECJAGHUSJQJN-MKXJHAPZSA-N,CN1[C@@H]2CC(C[C@H]1C3OC23)OC(=O)[C@H](CO)c4ccccc4,-0.48200000000000004
23,B-24,adrenaline tartrate (1:1),"InChI=1S/C9H13NO3.C4H6O6/c1-10-5-9(13)6-2-3-7(11)8(12)4-6;5-1(3(7)8)2(6)4(9)10/h2-4,9-13H,5H2,1H3;1-2,5-6H,(H,7,8)(H,9,10)/t9-;1-,2-/m01/s1",YLXIPWWIOISBDD-NDAAPVSOSA-N,CNC[C@H](O)c1ccc(O)c(O)c1.O[C@H]([C@@H](O)C(O)=O)C(O)=O,0.0
24,B-25,epinephrine,"InChI=1S/C9H13NO3/c1-10-5-9(13)6-2-3-7(11)8(12)4-6/h2-4,9-13H,5H2,1H3/t9-/m0/s1",UCTWMZQNUQWSLP-VIFPVBQESA-N,CNC[C@H](O)c1ccc(O)c(O)c1,-3.0077
25,B-26,propylthiouracil,"InChI=1S/C7H10N2OS/c1-2-3-5-4-6(10)9-7(11)8-5/h4H,2-3H2,1H3,(H2,8,9,10,11)",KNAHARQHSZJURB-UHFFFAOYSA-N,CCCC1=CC(=O)NC(=S)N1,-2.1504
26,B-27,p-methoxyacetanilide,"InChI=1S/C9H11NO2/c1-7(11)10-8-3-5-9(12-2)6-4-8/h3-6H,1-2H3,(H,10,11)",XVAIDCNLVLTVFM-UHFFFAOYSA-N,COc1ccc(NC(C)=O)cc1,-1.0404
27,B-28,mechlorethamine,"InChI=1S/C5H11Cl2N/c1-8(4-2-6)5-3-7/h2-5H2,1H3",HAWPXGHAZFHHAD-UHFFFAOYSA-N,CN(CCCl)CCCl,-1.1141
28,B-29,norethindrone acetate,"InChI=1S/C22H28O3/c1-4-22(25-14(2)23)12-10-20-19-7-5-15-13-16(24)6-8-17(15)18(19)9-11-21(20,22)3/h1,13,17-20H,5-12H2,2-3H3/t17-,18+,19+,20-,21-,22-/m0/s1",IMONTRJLAWHYGT-ZCPXKWAGSA-N,CC(=O)O[C@]1(CC[C@H]2[C@@H]3CCC4=CC(=O)CC[C@@H]4[C@H]3CC[C@]12C)C#C,-4.8041
29,B-30,spironolactone,"InChI=1S/C24H32O4S/c1-14(25)29-19-13-15-12-16(26)4-8-22(15,2)17-5-9-23(3)18(21(17)19)6-10-24(23)11-7-20(27)28-24/h12,17-19,21H,4-11,13H2,1-3H3/t17-,18-,19+,21+,22-,23-,24+/m0/s1",LXMSZDCAJNLERA-ZHYRCANASA-N,CC(=O)S[C@@H]1CC2=CC(=O)CC[C@]2(C)[C@H]3CC[C@@]4(C)[C@@H](CC[C@@]45CCC(=O)O5)[C@H]13,-4.2773
30,B-31,thiotepa,"InChI=1S/C6H12N3PS/c11-10(7-1-2-7,8-3-4-8)9-5-6-9/h1-6H2",FOCVUCIESVLUNU-UHFFFAOYSA-N,S=[P](N1CC1)(N2CC2)N3CC3,0.0018
31,B-32,"1,3-propanediol, 2-bromo-2-nitro-","InChI=1S/C3H6BrNO4/c4-3(1-6,2-7)5(8)9/h6-7H,1-2H2",LVDKZNITIUWNER-UHFFFAOYSA-N,OCC(Br)(CO)[N+]([O-])=O,0.0969
32,B-33,trichlorfon,"InChI=1S/C4H8Cl3O4P/c1-10-12(9,11-2)3(8)4(5,6)7/h3,8H,1-2H3",NFACJZMKEDPNKN-UHFFFAOYSA-N,CO[P](=O)(OC)C(O)C(Cl)(Cl)Cl,-0.3315
33,B-34,cysteine,"InChI=1S/C3H7NO2S/c4-2(1-7)3(5)6/h2,7H,1,4H2,(H,5,6)",XUJNEKJLAYXESH-UHFFFAOYSA-N,NC(CS)C(O)=O,0.3597
34,B-35,estrone,"InChI=1S/C18H22O2/c1-18-9-8-14-13-5-3-12(19)10-11(13)2-4-15(14)16(18)6-7-17(18)20/h3,5,10,14-16,19H,2,4,6-9H2,1H3/t14-,15-,16+,18+/m1/s1",DNXHEGUUPJUMQT-CBZIJGRNSA-N,C[C@]12CC[C@H]3[C@@H](CCc4cc(O)ccc34)[C@@H]1CCC2=O,-3.9548
35,B-36,"o,p'-ddd","InChI=1S/C14H10Cl4/c15-10-7-5-9(6-8-10)13(14(17)18)11-3-1-2-4-12(11)16/h1-8,13-14H",JWBOIMRXGHLCPP-UHFFFAOYSA-N,ClC(Cl)C(c1ccc(Cl)cc1)c2ccccc2Cl,-6.5052
36,B-37,androsterone,"InChI=1S/C19H30O2/c1-18-9-7-13(20)11-12(18)3-4-14-15-5-6-17(21)19(15,2)10-8-16(14)18/h12-16,20H,3-11H2,1-2H3/t12-,13+,14-,15-,16-,18-,19-/m0/s1",QGXBDMJGAMFCBF-HLUDHZFRSA-N,C[C@]12CC[C@@H](O)C[C@@H]1CC[C@@H]3[C@@H]2CC[C@@]4(C)[C@H]3CCC4=O,-4.3839
37,B-38,prasterone,"InChI=1S/C19H28O2/c1-18-9-7-13(20)11-12(18)3-4-14-15-5-6-17(21)19(15,2)10-8-16(14)18/h3,13-16,20H,4-11H2,1-2H3/t13-,14-,15-,16-,18-,19-/m0/s1",FMGSKLZLMKYGDP-USOAJAOKSA-N,C[C@]12CC[C@H]3[C@@H](CC=C4C[C@@H](O)CC[C@]34C)[C@@H]1CCC2=O,-3.6576
38,B-39,indomethacin,"InChI=1S/C19H16ClNO4/c1-11-15(10-18(22)23)16-9-14(25-2)7-8-17(16)21(11)19(24)12-3-5-13(20)6-4-12/h3-9H,10H2,1-2H3,(H,22,23)",CGIGDMFJXJATDK-UHFFFAOYSA-N,COc1ccc2n(c(C)c(CC(O)=O)c2c1)C(=O)c3ccc(Cl)cc3,-5.5817
39,B-40,nicotine,"InChI=1S/C10H14N2/c1-12-7-3-5-10(12)9-4-2-6-11-8-9/h2,4,6,8,10H,3,5,7H2,1H3/t10-/m0/s1",SNICXCGAKADSCV-JTQLQIEISA-N,CN1CCC[C@H]1c2cccnc2,0.7898
40,B-41,sodium salicylate,"InChI=1S/C7H6O3.Na/c8-6-4-2-1-3-5(6)7(9)10;/h1-4,8H,(H,9,10);/q;+1/p-1",ABBQHOQBGMUPJH-UHFFFAOYSA-M,[Na+].Oc1ccccc1C([O-])=O,-0.1075
41,B-42,"uridine, 2'-deoxy-5-iodo-","InChI=1S/C9H11IN2O5/c10-4-2-12(9(16)11-8(4)15)7-1-5(14)6(3-13)17-7/h2,5-7,13-14H,1,3H2,(H,11,15,16)",XQFRJNBWHJMXHO-UHFFFAOYSA-N,OCC1OC(CC1O)N2C=C(I)C(=O)NC2=O,-2.2481
42,B-43,chlorhexidine,"InChI=1S/C22H30Cl2N10/c23-15-5-9-17(10-6-15)31-21(27)33-19(25)29-13-3-1-2-4-14-30-20(26)34-22(28)32-18-11-7-16(24)8-12-18/h5-12H,1-4,13-14H2,(H5,25,27,29,31,33)(H5,26,28,30,32,34)",GHXZTYHSJHQHIJ-UHFFFAOYSA-N,NC(Nc1ccc(Cl)cc1)=NC(N)=NCCCCCCN=C(N)N=C(N)Nc2ccc(Cl)cc2,-2.8006
43,B-44,4-dimethylamino-3'-methylazobenzene,"InChI=1S/C15H17N3/c1-12-5-4-6-14(11-12)17-16-13-7-9-15(10-8-13)18(2)3/h4-11H,1-3H3",LVTFSVIRYMXRSR-UHFFFAOYSA-N,CN(C)c1ccc(cc1)N=Nc2cccc(C)c2,-5.7769
44,B-45,isoflurophate,"InChI=1S/C6H14FO3P/c1-5(2)9-11(7,8)10-6(3)4/h5-6H,1-4H3",MUCZHBLJLSDCSD-UHFFFAOYSA-N,CC(C)O[P](F)(=O)OC(C)C,-1.0777
45,B-46,metacil,"InChI=1S/C5H6N2OS/c1-3-2-4(8)7-5(9)6-3/h2H,1H3,(H2,6,7,8,9)",HWGBHCRJGXAGEU-UHFFFAOYSA-N,CC1=CC(=O)NC(=S)N1,-2.4259
46,B-47,4-aminobutyric acid,"InChI=1S/C4H9NO2/c5-3-1-2-4(6)7/h1-3,5H2,(H,6,7)",BTCSSZJGUNDROE-UHFFFAOYSA-N,NCCCC(O)=O,1.1006
47,B-48,cantharidin,"InChI=1S/C10H12O4/c1-9-5-3-4-6(13-5)10(9,2)8(12)14-7(9)11/h5-6H,3-4H2,1-2H3/t5-,6+,9+,10-",DHZBEENLJMYSHQ-XCVPVQRUSA-N,C[C@@]12[C@H]3CC[C@H](O3)[C@]1(C)C(=O)OC2=O,-3.8156
48,B-49,quinidine,"InChI=1S/C20H24N2O2/c1-3-13-12-22-9-7-14(13)10-19(22)20(23)16-6-8-21-18-5-4-15(24-2)11-17(16)18/h3-6,8,11,13-14,19-20,23H,1,7,9-10,12H2,2H3/t13-,14-,19+,20-/m0/s1",LOUPRKONTZGTKE-LHHVKLHASA-N,COc1ccc2nccc([C@H](O)[C@H]3C[C@@H]4CCN3C[C@@H]4C=C)c2c1,-3.365
49,B-50,adenosine triphosphate,"InChI=1S/C10H16N5O13P3/c11-8-5-9(13-2-12-8)15(3-14-5)10-7(17)6(16)4(26-10)1-25-30(21,22)28-31(23,24)27-29(18,19)20/h2-4,6-7,10,16-17H,1H2,(H,21,22)(H,23,24)(H2,11,12,13)(H2,18,19,20)",ZKHQWZAMYRWXGA-UHFFFAOYSA-N,Nc1ncnc2n(cnc12)C3OC(CO[P](O)(=O)O[P](O)(=O)O[P](O)(O)=O)C(O)C3O,0.2948
50,B-51,coumaphos,"InChI=1S/C14H16ClO5PS/c1-4-17-21(22,18-5-2)20-10-6-7-11-9(3)13(15)14(16)19-12(11)8-10/h6-8H,4-5H2,1-3H3",BXNANOICGRISHX-UHFFFAOYSA-N,CCO[P](=S)(OCC)Oc1ccc2C(=C(Cl)C(=O)Oc2c1)C,-5.3835
51,B-52,glycerol,"InChI=1S/C3H8O3/c4-1-3(6)2-5/h3-6H,1-2H2",PEDCQBHIVMGVHV-UHFFFAOYSA-N,OCC(O)CO,1.0358
52,B-53,aspartic acid,"InChI=1S/C4H7NO4/c5-2(4(8)9)1-3(6)7/h2H,1,5H2,(H,6,7)(H,8,9)",CKLJMWTZIZZHCS-UHFFFAOYSA-N,NC(CC(O)=O)C(O)=O,-1.395
53,B-54,glutamine,"InChI=1S/C5H10N2O3/c6-3(5(9)10)1-2-4(7)8/h3H,1-2,6H2,(H2,7,8)(H,9,10)/t3-/m0/s1",ZDXPYRJPNDTMRX-VKHMYHEASA-N,N[C@@H](CCC(N)=O)C(O)=O,-0.5488
54,B-55,glutamic acid,"InChI=1S/C5H9NO4/c6-3(5(9)10)1-2-4(7)8/h3H,1-2,6H2,(H,7,8)(H,9,10)",WHUUTDBJXJRKMK-UHFFFAOYSA-N,NC(CCC(O)=O)C(O)=O,-1.2347
55,B-56,lysine,"InChI=1S/C6H14N2O2/c7-4-2-1-3-5(8)6(9)10/h5H,1-4,7-8H2,(H,9,10)",KDXKERNSBIXSRK-UHFFFAOYSA-N,NCCCCC(N)C(O)=O,0.8351
56,B-57,cystine,"InChI=1S/C6H12N2O4S2/c7-3(5(9)10)1-13-14-2-4(8)6(11)12/h3-4H,1-2,7-8H2,(H,9,10)(H,11,12)/t3-,4-/m0/s1",LEVWYRKDKASIDU-IMJSIDKUSA-N,N[C@@H](CSSC[C@H](N)C(O)=O)C(O)=O,-3.102
57,B-58,glycerophosphoric acid,"InChI=1S/C3H9O6P/c4-1-3(5)2-9-10(6,7)8/h3-5H,1-2H2,(H2,6,7,8)",AWUCVROLDVIAJX-UHFFFAOYSA-N,OCC(O)CO[P](O)(O)=O,0.7643
58,B-59,3-isothiocyanato-1-propene,"InChI=1S/C4H5NS/c1-2-3-5-4-6/h2H,1,3H2",ZOJBYZNEUISWFT-UHFFFAOYSA-N,C=CCN=C=S,-1.6953
59,B-60,stearic acid,"InChI=1S/C18H36O2/c1-2-3-4-5-6-7-8-9-10-11-12-13-14-15-16-17-18(19)20/h2-17H2,1H3,(H,19,20)",QIQXTHQIDYTFRH-UHFFFAOYSA-N,CCCCCCCCCCCCCCCCCC(O)=O,-5.6781
60,B-61,"1,1-dimethylhydrazine","InChI=1S/C2H8N2/c1-4(2)3/h3H2,1-2H3",RHUYHJGZWVXEHW-UHFFFAOYSA-N,CN(C)N,1.2211
61,B-62,phenytoin,"InChI=1S/C15H12N2O2/c18-13-15(17-14(19)16-13,11-7-3-1-4-8-11)12-9-5-2-6-10-12/h1-10H,(H2,16,17,18,19)",CXOFVDLJLONNDW-UHFFFAOYSA-N,O=C1NC(=O)C(N1)(c2ccccc2)c3ccccc3,-3.8967
62,B-63,demerol,"InChI=1S/C15H21NO2/c1-3-18-14(17)15(9-11-16(2)12-10-15)13-7-5-4-6-8-13/h4-8H,3,9-12H2,1-2H3",XADCESSVHJOZHK-UHFFFAOYSA-N,CCOC(=O)C1(CCN(C)CC1)c2ccccc2,-1.8861
63,B-64,fructose,"InChI=1S/C6H12O6/c7-1-3(9)5(11)6(12)4(10)2-8/h3,5-9,11-12H,1-2H2/t3-,5-,6-/m1/s1",BJHIKXHVCXFQLS-UYFOZJQFSA-N,OC[C@@H](O)[C@@H](O)[C@H](O)C(=O)CO,0.6353
64,B-65,sucrose,"InChI=1S/C12H22O11/c13-1-4-6(16)8(18)9(19)11(21-4)23-12(3-15)10(20)7(17)5(2-14)22-12/h4-11,13-20H,1-3H2/t4-,5-,6-,7-,8+,9-,10+,11-,12+/m1/s1",CZMRCDWAGMRECN-UGDNZRGBSA-N,OC[C@H]1O[C@H](O[C@]2(CO)O[C@H](CO)[C@@H](O)[C@@H]2O)[C@H](O)[C@@H](O)[C@@H]1O,0.7878
65,B-66,"1,2-propanediol","InChI=1S/C3H8O2/c1-3(5)2-4/h3-5H,2H2,1H3",DNIAPMSPPWPWGF-UHFFFAOYSA-N,CC(O)CO,1.1186
66,B-67,beta-propiolactone,InChI=1S/C3H4O2/c4-3-1-2-5-3/h1-2H2,VEZXCJBBBCKRPI-UHFFFAOYSA-N,O=C1CCO1,0.7105
67,B-68,ethinyl estradiol,"InChI=1S/C20H24O2/c1-3-20(22)11-9-18-17-6-4-13-12-14(21)5-7-15(13)16(17)8-10-19(18,20)2/h1,5,7,12,16-18,21-22H,4,6,8-11H2,2H3/t16-,17-,18+,19+,20+/m1/s1",BFPYWIDHMRZLRN-SLHNCBLASA-N,C[C@]12CC[C@H]3[C@@H](CCc4cc(O)ccc34)[C@@H]1CC[C@@]2(O)C#C,-4.4192
68,B-69,sulfanilyl guanadine,"InChI=1S/C7H10N4O2S/c8-5-1-3-6(4-2-5)14(12,13)11-7(9)10/h1-4H,8H2,(H4,9,10,11)",BRBKOPJOKNSWSG-UHFFFAOYSA-N,NC(N)=N[S](=O)(=O)c1ccc(N)cc1,-1.9885
69,B-70,chlordane,"InChI=1S/C10H6Cl8/c11-3-1-2-4(5(3)12)9(16)7(14)6(13)8(2,15)10(9,17)18/h2-5H,1H2",BIWJNBZANLAXMG-UHFFFAOYSA-N,ClC1CC2C(C1Cl)C3(Cl)C(=C(Cl)C2(Cl)C3(Cl)Cl)Cl,-6.8644
70,B-71,testosterone propionate,"InChI=1S/C22H32O3/c1-4-20(24)25-19-8-7-17-16-6-5-14-13-15(23)9-11-21(14,2)18(16)10-12-22(17,19)3/h13,16-19H,4-12H2,1-3H3/t16-,17-,18-,19-,21-,22-/m0/s1",PDMMFKSKQVNJMI-BLQWBTBKSA-N,CCC(=O)O[C@H]1CC[C@H]2[C@@H]3CCC4=CC(=O)CC[C@]4(C)[C@H]3CC[C@]12C,-5.3669
71,B-72,cholesterol,"InChI=1S/C27H46O/c1-18(2)7-6-8-19(3)23-11-12-24-22-10-9-20-17-21(28)13-15-26(20,4)25(22)14-16-27(23,24)5/h9,18-19,21-25,28H,6-8,10-17H2,1-5H3/t19-,21+,22+,23-,24+,25+,26+,27-/m1/s1",HVYWMOMLDIMFJA-DPAQBDIFSA-N,CC(C)CCC[C@@H](C)[C@H]1CC[C@H]2[C@@H]3CC=C4C[C@@H](O)CC[C@]4(C)[C@H]3CC[C@]12C,-6.6096
72,B-73,a-estradiol,"InChI=1S/C18H24O2/c1-18-9-8-14-13-5-3-12(19)10-11(13)2-4-15(14)16(18)6-7-17(18)20/h3,5,10,14-17,19-20H,2,4,6-9H2,1H3/t14-,15-,16+,17-,18+/m1/s1",VOXZDWNPVJITMN-SFFUCWETSA-N,C[C@]12CC[C@H]3[C@@H](CCc4cc(O)ccc34)[C@@H]1CC[C@H]2O,-4.8441
73,B-74,librium,"InChI=1S/C16H14ClN3O/c1-18-15-10-20(21)16(11-5-3-2-4-6-11)13-9-12(17)7-8-14(13)19-15/h2-9,21H,10H2,1H3",BUCORZSTKDOEKQ-UHFFFAOYSA-N,CN=C1CN(O)C(=C2C=C(Cl)C=CC2=N1)c3ccccc3,-2.1757
74,B-75,prochloroperazine,"InChI=1S/C20H24ClN3S/c1-22-11-13-23(14-12-22)9-4-10-24-17-5-2-3-6-19(17)25-20-8-7-16(21)15-18(20)24/h2-3,5-8,15H,4,9-14H2,1H3",WIKYUJGCLQQFNW-UHFFFAOYSA-N,CN1CCN(CCCN2c3ccccc3Sc4ccc(Cl)cc24)CC1,-4.3979
75,B-76,pyridoxine hydrochloride,"InChI=1S/C8H11NO3.ClH/c1-5-8(12)7(4-11)6(3-10)2-9-5;/h2,10-12H,3-4H2,1H3;1H",ZUFQODAHGAHPFQ-UHFFFAOYSA-N,[H+].[Cl-].Cc1ncc(CO)c(CO)c1O,0.0293
76,B-77,inosine,"InChI=1S/C10H12N4O5/c15-1-4-6(16)7(17)10(19-4)14-3-13-5-8(14)11-2-12-9(5)18/h2-4,6-7,10,15-17H,1H2,(H,11,12,18)",UGQMRVRMYYASKQ-UHFFFAOYSA-N,OCC1OC(C(O)C1O)n2cnc3C(=O)N=CNc23,-1.2299
77,B-78,d-xylose,"InChI=1S/C5H10O5/c6-2-1-10-5(9)4(8)3(2)7/h2-9H,1H2",SRBFZHDQGSBBOR-UHFFFAOYSA-N,OC1COC(O)C(O)C1O,0.5678
78,B-79,galactose,"InChI=1S/C6H12O6/c7-1-2-3(8)4(9)5(10)6(11)12-2/h2-11H,1H2",WQZGKKKJIJFFOK-UHFFFAOYSA-N,OCC1OC(O)C(O)C(O)C1O,0.5788
79,B-80,nikethamide,"InChI=1S/C10H14N2O/c1-3-12(4-2)10(13)9-6-5-7-11-8-9/h5-8H,3-4H2,1-2H3",NCYVXEGFNDZQCU-UHFFFAOYSA-N,CCN(CC)C(=O)c1cccnc1,0.7490000000000001
80,B-81,2-(1h)-quinolinone,"InChI=1S/C9H7NO/c11-9-6-5-7-3-1-2-4-8(7)10-9/h1-6H,(H,10,11)",LISFMEBWQUVKPJ-UHFFFAOYSA-N,O=C1Nc2ccccc2C=C1,-2.1394
81,B-82,sulfaquinoxaline,"InChI=1S/C14H12N4O2S/c15-10-5-7-11(8-6-10)21(19,20)18-14-9-16-12-3-1-2-4-13(12)17-14/h1-9H,15H2,(H,17,18)",NHZLNPMOSADWGC-UHFFFAOYSA-N,Nc1ccc(cc1)[S](=O)(=O)Nc2cnc3ccccc3n2,-4.6026
82,B-83,thiamine,"InChI=1S/C12H17N4OS.ClH/c1-8-11(3-4-17)18-7-16(8)6-10-5-14-9(2)15-12(10)13;/h5,7,17H,3-4,6H2,1-2H3,(H2,13,14,15);1H/q+1;/p-1",MYVIATVLJGTBFV-UHFFFAOYSA-M,[Cl-].Cc1ncc(C[n+]2csc(CCO)c2C)c(N)n1,0.2207
83,B-84,"1,2-propanediol-3-(2-tolyloxy)","InChI=1S/C10H14O3/c1-8-4-2-3-5-10(8)13-7-9(12)6-11/h2-5,9,11-12H,6-7H2,1H3",JWDYCNIAQWPBHD-UHFFFAOYSA-N,Cc1ccccc1OCC(O)CO,-1.1887
84,B-85,3-methyl-4-chlorophenol,"InChI=1S/C7H7ClO/c1-5-4-6(9)2-3-7(5)8/h2-4,9H,1H3",CFKMVGJGLGKFKI-UHFFFAOYSA-N,Cc1cc(O)ccc1Cl,-1.5704
85,B-86,dl-methionine,"InChI=1S/C5H11NO2S/c1-9-3-2-4(6)5(7)8/h4H,2-3,6H2,1H3,(H,7,8)",FFEARJCKVFRZRR-UHFFFAOYSA-N,CSCCC(N)C(O)=O,-0.6593
86,B-87,"1-propanol, 2,3-dimercapto-","InChI=1S/C3H8OS2/c4-1-3(6)2-5/h3-6H,1-2H2",WQABCVAJNWAXTE-UHFFFAOYSA-N,OCC(S)CS,-0.1547
87,B-88,a-glucose-1-phosphate,"InChI=1S/C6H13O9P/c7-1-2-3(8)4(9)5(10)6(14-2)15-16(11,12)13/h2-10H,1H2,(H2,11,12,13)",HXXFSFRBOHSIMQ-UHFFFAOYSA-N,OCC1OC(O[P](O)(O)=O)C(O)C(O)C1O,0.5848
88,B-89,n-nitrosomorpholine,InChI=1S/C4H8N2O2/c7-5-6-1-3-8-4-2-6/h1-4H2,ZKXDGKXYMTYWTB-UHFFFAOYSA-N,O=NN1CCOCC1,0.9351
89,B-90,dopa,"InChI=1S/C9H11NO4/c10-6(9(13)14)3-5-1-2-7(11)8(12)4-5/h1-2,4,6,11-12H,3,10H2,(H,13,14)",WTDRDQBEARUVNC-UHFFFAOYSA-N,NC(Cc1ccc(O)c(O)c1)C(O)=O,-1.5959
90,B-91,ethylenediamine tetraacetic acid,"InChI=1S/C10H16N2O8/c13-7(14)3-11(4-8(15)16)1-2-12(5-9(17)18)6-10(19)20/h1-6H2,(H,13,14)(H,15,16)(H,17,18)(H,19,20)",KCXVZYZYPLLWCC-UHFFFAOYSA-N,OC(=O)CN(CCN(CC(O)=O)CC(O)=O)CC(O)=O,-2.4658
91,B-92,p-phenylazoaniline,"InChI=1S/C12H11N3/c13-10-6-8-12(9-7-10)15-14-11-4-2-1-3-5-11/h1-9H,13H2",QPQKUYVSJWQSDY-UHFFFAOYSA-N,Nc1ccc(cc1)N=Nc2ccccc2,-3.7898
92,B-93,tyrosine,"InChI=1S/C9H11NO3/c10-8(9(12)13)5-6-1-3-7(11)4-2-6/h1-4,8,11H,5,10H2,(H,12,13)",OUYCCCASQSFEME-UHFFFAOYSA-N,NC(Cc1ccc(O)cc1)C(O)=O,-2.5778
93,B-94,"ethanol, 2-mercapto-","InChI=1S/C2H6OS/c3-1-2-4/h3-4H,1-2H2",DGVVWUTYPXICAM-UHFFFAOYSA-N,OCCS,1.1072
94,B-95,6-aminohexanoic acid,"InChI=1S/C6H13NO2/c7-5-3-1-2-4-6(8)9/h1-5,7H2,(H,8,9)",SLXKOJJOQWFEFD-UHFFFAOYSA-N,NCCCCCC(O)=O,0.5854
95,B-96,methyl hydrazine,"InChI=1S/CH6N2/c1-3-2/h3H,2H2,1H3",HDZGCSFEDULWCS-UHFFFAOYSA-N,CNN,1.3366
96,B-97,acetamide,"InChI=1S/C2H5NO/c1-2(3)4/h1H3,(H2,3,4)",DLFVBJFMPXGRIB-UHFFFAOYSA-N,CC(N)=O,1.5808
97,B-98,tetracycline,"InChI=1S/C22H24N2O8/c1-21(31)8-5-4-6-11(25)12(8)16(26)13-9(21)7-10-15(24(2)3)17(27)14(20(23)30)19(29)22(10,32)18(13)28/h4-6,9-10,15,25-26,30-32H,7,23H2,1-3H3/b20-14-/t9-,10-,15-,21+,22-/m0/s1",JYHCQVWYCGHXGP-BPPSBWQWSA-N,CN(C)[C@H]1[C@@H]2C[C@H]3C(=C(O)c4c(O)cccc4[C@@]3(C)O)C(=O)[C@]2(O)C(=O)\C(=C(N)/O)C1=O,-3.284
98,B-99,dieldrin,"InChI=1S/C12H8Cl6O/c13-8-9(14)11(16)5-3-1-2(6-7(3)19-6)4(5)10(8,15)12(11,17)18/h2-7H,1H2",DFBKLUNHFCTMDC-UHFFFAOYSA-N,ClC1=C(Cl)C2(Cl)C3C4CC(C5OC45)C3C1(Cl)C2(Cl)Cl,-6.2908
99,B-100,methotrimeprazine,"InChI=1S/C19H24N2OS/c1-14(12-20(2)3)13-21-16-7-5-6-8-18(16)23-19-10-9-15(22-4)11-17(19)21/h5-11,14H,12-13H2,1-4H3/t14-/m1/s1",VRQVVMDWGGWHTJ-CQSZACIVSA-N,COc1ccc2Sc3ccccc3N(C[C@H](C)CN(C)C)c2c1,-4.2155
100,B-101,5'-adenylic acid,"InChI=1S/C10H14N5O7P/c11-8-5-9(13-2-12-8)15(3-14-5)10-7(17)6(16)4(22-10)1-21-23(18,19)20/h2-4,6-7,10,16-17H,1H2,(H2,11,12,13)(H2,18,19,20)",UDMBCSSLTHHNCD-UHFFFAOYSA-N,Nc1ncnc2n(cnc12)C3OC(CO[P](O)(O)=O)C(O)C3O,-1.5406
101,B-102,mefenamic acid,"InChI=1S/C15H15NO2/c1-10-6-5-9-13(11(10)2)16-14-8-4-3-7-12(14)15(17)18/h3-9,16H,1-2H3,(H,17,18)",HYYBABOKPJLUIN-UHFFFAOYSA-N,Cc1cccc(Nc2ccccc2C(O)=O)c1C,-4.0815
102,B-103,methylene blue,"InChI=1S/C16H18N3S.ClH/c1-18(2)11-5-7-13-15(9-11)20-16-10-12(19(3)4)6-8-14(16)17-13;/h5-10H,1-4H3;1H/q+1;/p-1",CXKWCBBOMKCUKX-UHFFFAOYSA-M,[Cl-].CN(C)c1ccc2nc3ccc(cc3[s+]c2c1)N(C)C,-0.8655
103,B-104,amitrole,"InChI=1S/C2H4N4/c3-2-4-1-5-6-2/h1H,(H3,3,4,5,6)",KLSJWNVTNUYHDU-UHFFFAOYSA-N,Nc1[nH]ncn1,0.5225
104,B-105,leucine,"InChI=1S/C6H13NO2/c1-4(2)3-5(7)6(8)9/h4-5H,3,7H2,1-2H3,(H,8,9)",ROHFNLRQFUQHCH-UHFFFAOYSA-N,CC(C)CC(N)C(O)=O,-0.7854
105,B-106,chlormerodrin,"InChI=1S/C5H11N2O2.ClH.Hg/c1-4(9-2)3-7-5(6)8;;/h4H,1,3H2,2H3,(H3,6,7,8);1H;/q;;+1/p-1",BJFGVYCULWBXKF-UHFFFAOYSA-M,[Cl-].COC(C[Hg+])CNC(N)=O,-1.5235
106,B-107,"alanine, 2-methyl-","InChI=1S/C4H9NO2/c1-4(2,5)3(6)7/h5H2,1-2H3,(H,6,7)",FUOOLUPWFVMBKG-UHFFFAOYSA-N,CC(C)(N)C(O)=O,0.2453