,ID,Name,InChI,InChIKey,SMILES,Solubility
234,B-235,isophorone,"InChI=1S/C9H14O/c1-7-4-8(10)6-9(2,3)5-7/h4H,5-6H2,1-3H3",HJOVHMDZYOCNQW-UHFFFAOYSA-N,CC1=CC(=O)CC(C)(C)C1,-1.0614
235,B-236,"2,2'-azobis(2-methylpropionitrile)","InChI=1S/C8H12N4/c1-7(2,5-9)11-12-8(3,4)6-10/h1-4H3",OZAIFHULBGXAKX-UHFFFAOYSA-N,CC(C)(N=NC(C)(C)C#N)C#N,-2.6713
236,B-237,linalool,"InChI=1S/C10H18O/c1-5-10(4,11)8-6-7-9(2)3/h5,7,11H,1,6,8H2,2-4H3",CDOSHBSSFJOMGT-UHFFFAOYSA-N,CC(C)=CCCC(C)(O)C=C,-1.9871
237,B-238,"ethane, 1,1,2-tribromo-","InChI=1S/C2H3Br3/c3-1-2(4)5/h2H,1H2",QUMDOMSJJIFTCA-UHFFFAOYSA-N,BrCC(Br)Br,-2.7272
238,B-239,"1,2-dibromopropane","InChI=1S/C3H6Br2/c1-3(5)2-4/h3H,2H2,1H3",XFNJYAKDBJUJAJ-UHFFFAOYSA-N,CC(Br)CBr,-2.1498
239,B-240,isopentane,"InChI=1S/C5H12/c1-4-5(2)3/h5H,4H2,1-3H3",QWTDNUCVQCZILF-UHFFFAOYSA-N,CCC(C)C,-3.177
240,B-241,"2-methyl-1,3-butadiene","InChI=1S/C5H8/c1-4-5(2)3/h4H,1-2H2,3H3",RRHGJUQNOFWUDK-UHFFFAOYSA-N,CC(=C)C=C,-2.0257
241,B-242,isobutylamine,"InChI=1S/C4H11N/c1-4(2)3-5/h4H,3,5H2,1-2H3",KDSNLYIMUZNERS-UHFFFAOYSA-N,CC(C)CN,1.1359
242,B-243,isobutyraldehyde,"InChI=1S/C4H8O/c1-4(2)3-5/h3-4H,1-2H3",AMIMRNSIRUDHCM-UHFFFAOYSA-N,CC(C)C=O,0.0914
243,B-244,methacrolein,"InChI=1S/C4H6O/c1-4(2)3-5/h3H,1H2,2H3",STNJBCKSHOAVAJ-UHFFFAOYSA-N,CC(=C)C=O,-0.1467
244,B-245,2-chlorobutane,"InChI=1S/C4H9Cl/c1-3-4(2)5/h4H,3H2,1-2H3",BSPCSKHALVHRSR-UHFFFAOYSA-N,CCC(C)Cl,-1.9665
245,B-246,"1,2-dichloropropane","InChI=1S/C3H6Cl2/c1-3(5)2-4/h3H,2H2,1H3",KNKRKFALVUDBJE-UHFFFAOYSA-N,CC(Cl)CCl,-1.6059
246,B-247,"2,3-dichloropropene",InChI=1S/C3H4Cl2/c1-3(5)2-4/h1-2H2,FALCMQXTWHPRIH-UHFFFAOYSA-N,ClCC(Cl)=C,-1.7128
247,B-248,chloroacetone,"InChI=1S/C3H5ClO/c1-3(5)2-4/h2H2,1H3",BULLHNJGPPOUOX-UHFFFAOYSA-N,CC(=O)CCl,-0.012
248,B-249,1-amino-2-propanol,"InChI=1S/C3H9NO/c1-3(5)2-4/h3,5H,2,4H2,1H3",HXKKHQJGJAFBHI-UHFFFAOYSA-N,CC(O)CN,1.1243
249,B-250,"1,1-dichloropropane","InChI=1S/C3H6Cl2/c1-2-3(4)5/h3H,2H2,1H3",WIHMGGWNMISDNJ-UHFFFAOYSA-N,CCC(Cl)Cl,-1.6217
250,B-251,bromoacetic acid,"InChI=1S/C2H3BrO2/c3-1-2(4)5/h1H2,(H,4,5)",KDPAWGWELVVRCH-UHFFFAOYSA-N,OC(=O)CBr,1.1002
251,B-252,acrylic acid,"InChI=1S/C3H4O2/c1-2-3(4)5/h2H,1H2,(H,4,5)",NIXOWILDQLNWCW-UHFFFAOYSA-N,OC(=O)C=C,1.1423
252,B-253,n-methylacetamide,"InChI=1S/C3H7NO/c1-3(5)4-2/h1-2H3,(H,4,5)",OHLUUHNLEMFGTQ-UHFFFAOYSA-N,CNC(C)=O,1.1361
253,B-254,thiosemicarbazide,"InChI=1S/CH5N3S/c2-1(5)4-3/h3H2,(H3,2,4,5)",BRWIZMBXBAOCCF-UHFFFAOYSA-N,NNC(N)=S,-0.9588
254,B-255,peroxyacetic acid,"InChI=1S/C2H4O3/c1-2(3)5-4/h4H,1H3",KFSLWBXXFJQRDL-UHFFFAOYSA-N,CC(=O)OO,1.1189
255,B-256,"1,1,2,2-tetrabromoethane",InChI=1S/C2H2Br4/c3-1(4)2(5)6/h1-2H,QXSZNDIIPUOQMB-UHFFFAOYSA-N,BrC(Br)C(Br)Br,-2.7074
256,B-257,dichloroacetic acid,"InChI=1S/C2H2Cl2O2/c3-1(4)2(5)6/h1H,(H,5,6)",JXTHNDFMNIQAHM-UHFFFAOYSA-N,OC(=O)C(Cl)Cl,0.8896
257,B-258,2-nitropropane,"InChI=1S/C3H7NO2/c1-3(2)4(5)6/h3H,1-2H3",FGLBSLMDCBOPQK-UHFFFAOYSA-N,CC(C)[N+]([O-])=O,-0.7194
258,B-259,d-pantothenic acid,"InChI=1S/C9H17NO5/c1-9(2,5-11)7(14)8(15)10-4-3-6(12)13/h7,11,14H,3-5H2,1-2H3,(H,10,15)(H,12,13)",GHOKWGTUZJEAQD-UHFFFAOYSA-N,CC(C)(CO)C(O)C(=O)NCCC(O)=O,0.6591
259,B-260,"3-furancarboxylic acid, tetrahydro-2,2-dimethyl-","InChI=1S/C7H10O4/c1-7(2)4(6(9)10)3-5(8)11-7/h4H,3H2,1-2H3,(H,9,10)/p-1/t4-/m1/s1",UZBOWOQARWWIER-SCSAIBSYSA-M,CC1(C)OC(=O)C[C@@H]1C([O-])=O,-1.2449
260,B-261,camphene,"InChI=1S/C10H16/c1-7-8-4-5-9(6-8)10(7,2)3/h8-9H,1,4-6H2,2-3H3",CRPUJAZIXJMDBK-UHFFFAOYSA-N,CC1(C)C2CCC(C2)C1=C,-4.4715
261,B-262,cumene hydroperoxide,"InChI=1S/C9H12O2/c1-9(2,11-10)8-6-4-3-5-7-8/h3-7,10H,1-2H3",YQHLDYVWEZKEOX-UHFFFAOYSA-N,CC(C)(OO)c1ccccc1,-1.0394
262,B-263,"benzenesulfonamide, 4-amino-n-[5-(1-methylethyl)","InChI=1S/C11H14N4O2S2/c1-7(2)10-13-14-11(18-10)15-19(16,17)9-5-3-8(12)4-6-9/h3-7H,12H2,1-2H3,(H,14,15)",OPIGMRDAPFQALU-UHFFFAOYSA-N,CC(C)c1sc(N[S](=O)(=O)c2ccc(N)cc2)nn1,-3.4141
263,B-264,"peroxide, bis(1-methyl-1-phenylethyl)","InChI=1S/C18H22O2/c1-17(2,15-11-7-5-8-12-15)19-20-18(3,4)16-13-9-6-10-14-16/h5-14H,1-4H3",XMNIXWIUMCBBBL-UHFFFAOYSA-N,CC(C)(OOC(C)(C)c1ccccc1)c2ccccc2,-5.7692
264,B-265,p-tert-amylphenol,"InChI=1S/C11H16O/c1-4-11(2,3)9-5-7-10(12)8-6-9/h5-8,12H,4H2,1-3H3",NRZWYNLTFLDQQX-UHFFFAOYSA-N,CCC(C)(C)c1ccc(O)cc1,-2.9902
265,B-266,terpin,"InChI=1S/C10H20O2/c1-9(2,11)8-4-6-10(3,12)7-5-8/h8,11-12H,4-7H2,1-3H3",RBNWAMSGVWEHFP-UHFFFAOYSA-N,CC(C)(O)C1CCC(C)(O)CC1,-1.2362
266,B-267,alpha-pinene,"InChI=1S/C10H16/c1-7-4-5-8-6-9(7)10(8,2)3/h4,8-9H,5-6H2,1-3H3",GRWFGVWFFZKLTI-UHFFFAOYSA-N,CC1=CCC2CC1C2(C)C,-4.7381
267,B-268,dl-threonine,"InChI=1S/C4H9NO3/c1-2(6)3(5)4(7)8/h2-3,6H,5H2,1H3,(H,7,8)",AYFVYJQAPQTCCC-UHFFFAOYSA-N,CC(O)C(N)C(O)=O,0.2272
268,B-269,"preg-4-ene-3,20-dione, 11-hydroxy-, (11.alpha.)-","InChI=1S/C21H30O3/c1-12(22)16-6-7-17-15-5-4-13-10-14(23)8-9-20(13,2)19(15)18(24)11-21(16,17)3/h10,15-19,24H,4-9,11H2,1-3H3/t15-,16?,17-,18+,19+,20-,21+/m0/s1",BFZHCUBIASXHPK-ODYOLWGQSA-N,CC(=O)C1CC[C@H]2[C@@H]3CCC4=CC(=O)CC[C@]4(C)[C@H]3[C@H](O)C[C@]12C,-3.8202
269,B-270,chlormezanone,"InChI=1S/C11H12ClNO3S/c1-13-10(14)6-7-17(15,16)11(13)8-2-4-9(12)5-3-8/h2-5,11H,6-7H2,1H3",WEQAYVWKMWHEJO-UHFFFAOYSA-N,CN1C(c2ccc(Cl)cc2)[S](=O)(=O)CCC1=O,-2.0394
270,B-271,dexpanthenol,"InChI=1S/C9H19NO4/c1-9(2,6-12)7(13)8(14)10-4-3-5-11/h7,11-13H,3-6H2,1-2H3,(H,10,14)/t7-/m0/s1",SNPLKNRPJHDVJA-ZETCQYMHSA-N,CC(C)(CO)[C@@H](O)C(=O)NCCCO,0.6877
271,B-272,musk ketone,"InChI=1S/C14H18N2O5/c1-7-10(9(3)17)8(2)13(16(20)21)11(14(4,5)6)12(7)15(18)19/h1-6H3",WXCMHFPAUCOJIG-UHFFFAOYSA-N,CC(=O)c1c(C)c(c(c(c1C)[N+]([O-])=O)C(C)(C)C)[N+]([O-])=O,-5.1901
272,B-273,cholic acid,"InChI=1S/C24H40O5/c1-13(4-7-21(28)29)16-5-6-17-22-18(12-20(27)24(16,17)3)23(2)9-8-15(25)10-14(23)11-19(22)26/h13-20,22,25-27H,4-12H2,1-3H3,(H,28,29)/t13-,14+,15-,16-,17+,18+,19-,20+,22+,23+,24-/m1/s1",BHQCQFFYRZLCQQ-OELDTZBJSA-N,C[C@H](CCC(O)=O)[C@H]1CC[C@H]2[C@@H]3[C@H](O)C[C@@H]4C[C@H](O)CC[C@]4(C)[C@H]3C[C@H](O)[C@]12C,-3.3682
273,B-274,purpurin,"InChI=1S/C14H8O5/c15-8-5-9(16)14(19)11-10(8)12(17)6-3-1-2-4-7(6)13(11)18/h1-5,15-16,19H",BBNQQADTFFCFGB-UHFFFAOYSA-N,Oc1cc(O)c2C(=O)c3ccccc3C(=O)c2c1O,-4.6024
274,B-275,warfarin,"InChI=1S/C19H16O4/c1-12(20)11-15(13-7-3-2-4-8-13)17-18(21)14-9-5-6-10-16(14)23-19(17)22/h2-10,15,22H,11H2,1H3",QTXVAVXCBMYBJW-UHFFFAOYSA-N,CC(=O)CC(c1ccccc1)C2=C(O)Oc3ccccc3C2=O,-4.2586
275,B-276,coumachlor,"InChI=1S/C19H15ClO4/c1-11(21)10-15(12-6-8-13(20)9-7-12)17-18(22)14-4-2-3-5-16(14)24-19(17)23/h2-9,15,23H,10H2,1H3",HENZOLWOIZODCT-UHFFFAOYSA-N,CC(=O)CC(c1ccc(Cl)cc1)C2=C(O)Oc3ccccc3C2=O,-5.836
276,B-277,"benzoic acid, 2- bis(4-hydroxyphenyl)methyl -","InChI=1S/C20H16O4/c21-15-9-5-13(6-10-15)19(14-7-11-16(22)12-8-14)17-3-1-2-4-18(17)20(23)24/h1-12,19,21-22H,(H,23,24)",FFFPYJTVNSSLBQ-UHFFFAOYSA-N,Oc1ccc(cc1)C(c2ccc(O)cc2)c3ccccc3C(O)=O,-3.2626
277,B-278,khellin,"InChI=1S/C14H12O5/c1-7-6-9(15)10-11(16-2)8-4-5-18-12(8)14(17-3)13(10)19-7/h4-6H,1-3H3",HSMPDPBYAYSOBC-UHFFFAOYSA-N,COc1c2occc2c(OC)c3C(=O)C=C(C)Oc13,-2.3979
278,B-279,"1-amino-2-methyl-9,10-anthracenedione","InChI=1S/C15H11NO2/c1-8-6-7-11-12(13(8)16)15(18)10-5-3-2-4-9(10)14(11)17/h2-7H,16H2,1H3",ZLCUIOWQYBYEBG-UHFFFAOYSA-N,Cc1ccc2C(=O)c3ccccc3C(=O)c2c1N,-5.8541
279,B-280,"1,8-anthraquinonedisulfonic acid","InChI=1S/C14H8O8S2/c15-13-7-3-1-5-9(23(17,18)19)11(7)14(16)12-8(13)4-2-6-10(12)24(20,21)22/h1-6H,(H,17,18,19)(H,20,21,22)",IJNPIHLZSZCGOC-UHFFFAOYSA-N,O[S](=O)(=O)c1cccc2C(=O)c3cccc(c3C(=O)c12)[S](O)(=O)=O,1.2572
280,B-281,"2,4,6-trinitroresorcinol","InChI=1S/C6H3N3O8/c10-5-2(7(12)13)1-3(8(14)15)6(11)4(5)9(16)17/h1,10-11H",IXHMHWIBCIYOAZ-UHFFFAOYSA-N,Oc1c(cc(c(O)c1[N+]([O-])=O)[N+]([O-])=O)[N+]([O-])=O,-1.6617
281,B-282,cyclizine,"InChI=1S/C18H22N2/c1-19-12-14-20(15-13-19)18(16-8-4-2-5-9-16)17-10-6-3-7-11-17/h2-11,18H,12-15H2,1H3",UVKZSORBKUEBAZ-UHFFFAOYSA-N,CN1CCN(CC1)C(c2ccccc2)c3ccccc3,-2.4255
282,B-283,ampyrone,"InChI=1S/C11H13N3O/c1-8-10(12)11(15)14(13(8)2)9-6-4-3-5-7-9/h3-7H,12H2,1-2H3",RLFWWDJHLFCNIJ-UHFFFAOYSA-N,CN1N(c2ccccc2)C(=O)C(=C1C)N,0.5543
283,B-284,pindone,"InChI=1S/C14H14O3/c1-14(2,3)13(17)10-11(15)8-6-4-5-7-9(8)12(10)16/h4-7,10H,1-3H3",RZKYEQDPDZUERB-UHFFFAOYSA-N,CC(C)(C)C(=O)C1C(=O)c2ccccc2C1=O,-4.107
284,B-285,methylprednisolone,"InChI=1S/C22H30O5/c1-12-8-14-15-5-7-22(27,18(26)11-23)21(15,3)10-17(25)19(14)20(2)6-4-13(24)9-16(12)20/h4,6,9,12,14-15,17,19,23,25,27H,5,7-8,10-11H2,1-3H3/t12-,14-,15-,17-,19+,20-,21-,22-/m0/s1",VHRSUDSXCMQTMA-PJHHCJLFSA-N,C[C@H]1C[C@H]2[C@@H]3CC[C@](O)(C(=O)CO)[C@@]3(C)C[C@H](O)[C@@H]2[C@@]4(C)C=CC(=O)C=C14,-3.4942
285,B-286,deoxycholic acid,"InChI=1S/C24H40O4/c1-14(4-9-22(27)28)18-7-8-19-17-6-5-15-12-16(25)10-11-23(15,2)20(17)13-21(26)24(18,19)3/h14-21,25-26H,4-13H2,1-3H3,(H,27,28)/t14-,15-,16-,17+,18-,19+,20+,21+,23+,24-/m1/s1",KXGVEGMKQFWNSR-LLQZFEROSA-N,C[C@H](CCC(O)=O)[C@H]1CC[C@H]2[C@@H]3CC[C@@H]4C[C@H](O)CC[C@]4(C)[C@H]3C[C@H](O)[C@]12C,-3.9544
286,B-287,"4(1h)-quinolinone, 1-methyl-","InChI=1S/C10H9NO/c1-11-7-6-10(12)8-4-2-3-5-9(8)11/h2-7H,1H3",CSJAXRKDCCWCSJ-UHFFFAOYSA-N,CN1C=CC(=O)c2ccccc12,-0.9818
287,B-288,"1,5-dihydroxynaphthalene","InChI=1S/C10H8O2/c11-9-5-1-3-7-8(9)4-2-6-10(7)12/h1-6,11-12H",BOKGTLAJQHTOKE-UHFFFAOYSA-N,Oc1cccc2c(O)cccc12,-2.9871
288,B-289,rotenone,"InChI=1S/C23H22O6/c1-11(2)16-8-14-15(28-16)6-5-12-22(24)21-13-7-18(25-3)19(26-4)9-17(13)27-10-20(21)29-23(12)14/h5-7,9,16,20-21H,1,8,10H2,2-4H3/t16-,20-,21+/m1/s1",JUVIOZPCNVVQFO-HBGVWJBISA-N,COc1cc2OC[C@H]3Oc4c5C[C@@H](Oc5ccc4C(=O)[C@H]3c2cc1OC)C(C)=C,-6.2949
289,B-290,phytic acid,"InChI=1S/C6H18O24P6/c7-31(8,9)25-1-2(26-32(10,11)12)4(28-34(16,17)18)6(30-36(22,23)24)5(29-35(19,20)21)3(1)27-33(13,14)15/h1-6H,(H2,7,8,9)(H2,10,11,12)(H2,13,14,15)(H2,16,17,18)(H2,19,20,21)(H2,22,23,24)/t1-,2-,3-,4+,5-,6-",IMQLKJBTEOYOSI-GPIVLXJGSA-N,O[P](O)(=O)O[C@H]1[C@H](O[P](O)(O)=O)[C@@H](O[P](O)(O)=O)[C@H](O[P](O)(O)=O)[C@@H](O[P](O)(O)=O)[C@H]1O[P](O)(O)=O,0.1804
290,B-291,riboflavin,"InChI=1S/C17H20N4O6/c1-7-3-9-10(4-8(7)2)21(5-11(23)14(25)12(24)6-22)15-13(18-9)16(26)20-17(27)19-15/h3-4,11-12,14,22-25H,5-6H2,1-2H3,(H,20,26,27)",AUNGANRZJHBGPY-UHFFFAOYSA-N,Cc1cc2N=C3C(=O)NC(=O)N=C3N(CC(O)C(O)C(O)CO)c2cc1C,-3.6478
291,B-292,o-terphenyl,InChI=1S/C18H14/c1-3-9-15(10-4-1)17-13-7-8-14-18(17)16-11-5-2-6-12-16/h1-14H,OIAQMFOKAXHPNH-UHFFFAOYSA-N,c1ccc(cc1)c2ccccc2c3ccccc3,-5.2692
292,B-293,quininone,"InChI=1S/C20H22N2O2/c1-3-13-12-22-9-7-14(13)10-19(22)20(23)16-6-8-21-18-5-4-15(24-2)11-17(16)18/h3-6,8,11,13-14,19H,1,7,9-10,12H2,2H3",SRFCUPVBYYAMIL-UHFFFAOYSA-N,COc1ccc2nccc(C(=O)C3CC4CCN3CC4C=C)c2c1,-5.0313
293,B-294,"2,6-dihydroxy-anthraquinone","InChI=1S/C14H8O4/c15-7-1-3-9-11(5-7)14(18)10-4-2-8(16)6-12(10)13(9)17/h1-6,15-16H",APAJFZPFBHMFQR-UHFFFAOYSA-N,Oc1ccc2C(=O)c3cc(O)ccc3C(=O)c2c1,-5.8892
294,B-295,dicyclohexyl phthalate,"InChI=1S/C20H26O4/c21-19(23-15-9-3-1-4-10-15)17-13-7-8-14-18(17)20(22)24-16-11-5-2-6-12-16/h7-8,13-16H,1-6,9-12H2",VOWAEIGWURALJQ-UHFFFAOYSA-N,O=C(OC1CCCCC1)c2ccccc2C(=O)OC3CCCCC3,-4.917
295,B-296,diphenyl phthalate,InChI=1S/C20H14O4/c21-19(23-15-9-3-1-4-10-15)17-13-7-8-14-18(17)20(22)24-16-11-5-2-6-12-16/h1-14H,DWNAQMUDCDVSLT-UHFFFAOYSA-N,O=C(Oc1ccccc1)c2ccccc2C(=O)Oc3ccccc3,-6.5891
296,B-297,dihexyl phthalate,"InChI=1S/C20H30O4/c1-3-5-7-11-15-23-19(21)17-13-9-10-14-18(17)20(22)24-16-12-8-6-4-2/h9-10,13-14H,3-8,11-12,15-16H2,1-2H3",KCXZNSGUUQJJTR-UHFFFAOYSA-N,CCCCCCOC(=O)c1ccccc1C(=O)OCCCCCC,-6.8254
297,B-298,didecyl phthalate,"InChI=1S/C28H46O4/c1-3-5-7-9-11-13-15-19-23-31-27(29)25-21-17-18-22-26(25)28(30)32-24-20-16-14-12-10-8-6-4-2/h17-18,21-22H,3-16,19-20,23-24H2,1-2H3",PGIBJVOPLXHHGS-UHFFFAOYSA-N,CCCCCCCCCCOC(=O)c1ccccc1C(=O)OCCCCCCCCCC,-9.3076
298,B-299,xanthoxyletin,"InChI=1S/C15H14O4/c1-15(2)7-6-10-12(19-15)8-11-9(14(10)17-3)4-5-13(16)18-11/h4-8H,1-3H3",JSJIIHRNDMLJGK-UHFFFAOYSA-N,COc1c2C=CC(=O)Oc2cc3OC(C)(C)C=Cc13,-3.81
299,B-300,8-chlorotheophylline,"InChI=1S/C7H7ClN4O2/c1-11-4-3(9-6(8)10-4)5(13)12(2)7(11)14/h1-2H3,(H,9,10)",RYIGNEOBDRVTHA-UHFFFAOYSA-N,CN1C(=O)N(C)c2nc(Cl)[nH]c2C1=O,-1.5075
300,B-301,"benzoic acid, 2-(4-chlorobenzoyl)-","InChI=1S/C14H9ClO3/c15-10-7-5-9(6-8-10)13(16)11-3-1-2-4-12(11)14(17)18/h1-8H,(H,17,18)",YWECCEXWKFHHQJ-UHFFFAOYSA-N,OC(=O)c1ccccc1C(=O)c2ccc(Cl)cc2,-2.7171
301,B-302,"benzoic acid, 2-(4-hydroxybenzoyl)-","InChI=1S/C14H10O4/c15-10-7-5-9(6-8-10)13(16)11-3-1-2-4-12(11)14(17)18/h1-8,15H,(H,17,18)",YGTUPRIZNBMOFV-UHFFFAOYSA-N,OC(=O)c1ccccc1C(=O)c2ccc(O)cc2,-2.5835
302,B-303,3'-methylphthalanilic acid,"InChI=1S/C15H13NO3/c1-10-5-4-6-11(9-10)16-14(17)12-7-2-3-8-13(12)15(18)19/h2-9H,1H3,(H,16,17)(H,18,19)",AZPJXONNBLOZFE-UHFFFAOYSA-N,Cc1cccc(NC(=O)c2ccccc2C(O)=O)c1,-2.407
303,B-304,"2,7-naphthalenedisulfonic acid, 1-amino-","InChI=1S/C10H9NO6S2/c11-9-3-4-10(19(15,16)17)8-5-6(18(12,13)14)1-2-7(8)9/h1-5H,11H2,(H,12,13,14)(H,15,16,17)",JSBQMQFABBMNSV-UHFFFAOYSA-N,Nc1ccc(c2cc(ccc12)[S](O)(=O)=O)[S](O)(=O)=O,-0.2592
304,B-305,"1,6-naphthalenedisulfonic acid, 4-amino-","InChI=1S/C10H9NO6S2/c11-9-3-4-10(19(15,16)17)7-2-1-6(5-8(7)9)18(12,13)14/h1-5H,11H2,(H,12,13,14)(H,15,16,17)",QUFFRITXLMVPMV-UHFFFAOYSA-N,Nc1ccc(c2ccc(cc12)[S](O)(=O)=O)[S](O)(=O)=O,-1.643
305,B-306,dibucaine,"InChI=1S/C20H29N3O2/c1-4-7-14-25-19-15-17(16-10-8-9-11-18(16)22-19)20(24)21-12-13-23(5-2)6-3/h8-11,15H,4-7,12-14H2,1-3H3,(H,21,24)",PUFQVTATUTYEAL-UHFFFAOYSA-N,CCCCOc1cc(C(=O)NCCN(CC)CC)c2ccccc2n1,-3.9126
306,B-307,diphenylacetonitrile,"InChI=1S/C14H11N/c15-11-14(12-7-3-1-4-8-12)13-9-5-2-6-10-13/h1-10,14H",NEBPTMCRLHKPOB-UHFFFAOYSA-N,N#CC(c1ccccc1)c2ccccc2,-2.9437
307,B-308,methyl azinphos,"InChI=1S/C10H12N3O3PS2/c1-15-17(18,16-2)19-7-13-10(14)8-5-3-4-6-9(8)11-12-13/h3-6H,7H2,1-2H3",CJJOSEISRRTUQB-UHFFFAOYSA-N,CO[P](=S)(OC)SCN1N=Nc2ccccc2C1=O,-4.1814
308,B-309,8-quinolinecarboxylic acid,"InChI=1S/C10H7NO2/c12-10(13)8-5-1-3-7-4-2-6-11-9(7)8/h1-6H,(H,12,13)",QRDZFPUVLYEQTA-UHFFFAOYSA-N,OC(=O)c1cccc2cccnc12,-1.7447
309,B-310,"benzaldehyde, 3,4,5-trimethoxy-","InChI=1S/C10H12O4/c1-12-8-4-7(6-11)5-9(13-2)10(8)14-3/h4-6H,1-3H3",OPHQOIGEOHXOGX-UHFFFAOYSA-N,COc1cc(C=O)cc(OC)c1OC,-2.1195
310,B-311,"benzoic acid, 2-hydroxy-, 3-methylbutyl ester","InChI=1S/C12H16O3/c1-9(2)7-8-15-12(14)10-5-3-4-6-11(10)13/h3-6,9,13H,7-8H2,1-2H3",PMGCQNGBLMMXEW-UHFFFAOYSA-N,CC(C)CCOC(=O)c1ccccc1O,-3.1572
311,B-312,"benzoic acid, 2-hydroxy-, 2-hydroxyethyl ester","InChI=1S/C9H10O4/c10-5-6-13-9(12)7-3-1-2-4-8(7)11/h1-4,10-11H,5-6H2",LVYLCBNXHHHPSB-UHFFFAOYSA-N,OCCOC(=O)c1ccccc1O,-1.1567
312,B-313,n-acetyl-dl-tryptophan,"InChI=1S/C13H14N2O3/c1-8(16)15-12(13(17)18)6-9-7-14-11-5-3-2-4-10(9)11/h2-5,7,12,14H,6H2,1H3,(H,15,16)(H,17,18)/p-1/t12-/m0/s1",DZTHIGRZJZPRDV-LBPRGKRZSA-M,CC(=O)N[C@@H](Cc1c[nH]c2ccccc12)C([O-])=O,-2.3122
313,B-314,6-chloropurine,"InChI=1S/C5H3ClN4/c6-4-3-5(9-1-7-3)10-2-8-4/h1-2H,(H,7,8,9,10)",ZKBQDFAWXLTYKS-UHFFFAOYSA-N,Clc1ncnc2nc[nH]c12,-1.4901
314,B-315,pyrolan,"InChI=1S/C13H15N3O2/c1-10-9-12(18-13(17)15(2)3)16(14-10)11-7-5-4-6-8-11/h4-9H,1-3H3",GEDIWDLJKRKBFT-UHFFFAOYSA-N,CN(C)C(=O)Oc1cc(C)nn1c2ccccc2,-2.0886
315,B-316,"2,6-dimethylaniline","InChI=1S/C8H11N/c1-6-4-3-5-7(2)8(6)9/h3-5H,9H2,1-2H3",UFFBMTHBGFGIHF-UHFFFAOYSA-N,Cc1cccc(C)c1N,-1.1675
316,B-317,2-methyl-6-chlorophenol,"InChI=1S/C7H7ClO/c1-5-3-2-4-6(8)7(5)9/h2-4,9H,1H3",YPNZJHFXFVLXSE-UHFFFAOYSA-N,Cc1cccc(Cl)c1O,-0.7739
317,B-318,"1,2,3-trihydroxybenzene","InChI=1S/C6H6O3/c7-4-2-1-3-5(8)6(4)9/h1-3,7-9H",WQGWDDDVZFFDIG-UHFFFAOYSA-N,Oc1cccc(O)c1O,0.6043
318,B-319,tartaric acid,"InChI=1S/C4H6O6/c5-1(3(7)8)2(6)4(9)10/h1-2,5-6H,(H,7,8)(H,9,10)",FEWJPZIEWOKRBE-UHFFFAOYSA-N,OC(C(O)C(O)=O)C(O)=O,0.5886
319,B-320,hexabromobenzene,InChI=1S/C6Br6/c7-1-2(8)4(10)6(12)5(11)3(1)9,CAYGQBVSOZLICD-UHFFFAOYSA-N,Brc1c(Br)c(Br)c(Br)c(Br)c1Br,-9.5374
320,B-321,"1,3,5-trichloroisocyanuric acid",InChI=1S/C3Cl3N3O3/c4-7-1(10)8(5)3(12)9(6)2(7)11,YRIZYWQGELRKNT-UHFFFAOYSA-N,ClN1C(=O)N(Cl)C(=O)N(Cl)C1=O,-1.2871
321,B-322,xylitol,"InChI=1S/C5H12O5/c6-1-3(8)5(10)4(9)2-7/h3-10H,1-2H2",HEBKCHPVOIAQTA-UHFFFAOYSA-N,OCC(O)C(O)C(O)CO,0.6253
322,B-323,"4-chloro-3,5-dimethyl phenol","InChI=1S/C8H9ClO/c1-5-3-7(10)4-6(2)8(5)9/h3-4,10H,1-2H3",OSDLLIBGSJNGJE-UHFFFAOYSA-N,Cc1cc(O)cc(C)c1Cl,-2.7969
323,B-324,"2,4,6-trichlorophenol","InChI=1S/C6H3Cl3O/c7-3-1-4(8)6(10)5(9)2-3/h1-2,10H",LINPIYWFGCPVIE-UHFFFAOYSA-N,Oc1c(Cl)cc(Cl)cc1Cl,-2.3924
324,B-325,2-acetylthiophene,"InChI=1S/C6H6OS/c1-5(7)6-3-2-4-8-6/h2-4H,1H3",WYJOVVXUZNRJQY-UHFFFAOYSA-N,CC(=O)c1sccc1,-0.9549
325,B-326,o-t-butylphenol,"InChI=1S/C10H14O/c1-10(2,3)8-6-4-5-7-9(8)11/h4-7,11H,1-3H3",WJQOZHYUIDYNHM-UHFFFAOYSA-N,CC(C)(C)c1ccccc1O,-2.3316
326,B-327,3-trifluoromethyl-4-nitrophenol,"InChI=1S/C7H4F3NO3/c8-7(9,10)5-3-4(12)1-2-6(5)11(13)14/h1-3,12H",ZEFMBAFMCSYJOO-UHFFFAOYSA-N,Oc1ccc(c(c1)C(F)(F)F)[N+]([O-])=O,-1.6172
327,B-328,o-bromobenzoic acid,"InChI=1S/C7H5BrO2/c8-6-4-2-1-3-5(6)7(9)10/h1-4H,(H,9,10)",XRXMNWGCKISMOH-UHFFFAOYSA-N,OC(=O)c1ccccc1Br,-2.0347
328,B-329,dinoseb,"InChI=1S/C10H12N2O5/c1-3-6(2)8-4-7(11(14)15)5-9(10(8)13)12(16)17/h4-6,13H,3H2,1-2H3",OWZPCEFYPSAJFR-UHFFFAOYSA-N,CCC(C)c1cc(cc(c1O)[N+]([O-])=O)[N+]([O-])=O,-3.6646
329,B-330,"2,4,6-trinitrophenol","InChI=1S/C6H3N3O7/c10-6-4(8(13)14)1-3(7(11)12)2-5(6)9(15)16/h1-2,10H",OXNIZHLAWKMVMX-UHFFFAOYSA-N,Oc1c(cc(cc1[N+]([O-])=O)[N+]([O-])=O)[N+]([O-])=O,-1.2562
330,B-331,"1,2-benzenedicarboxamide","InChI=1S/C8H8N2O2/c9-7(11)5-3-1-2-4-6(5)8(10)12/h1-4H,(H2,9,11)(H2,10,12)",NAYYNDKKHOIIOD-UHFFFAOYSA-N,NC(=O)c1ccccc1C(N)=O,-2.4371
331,B-332,o-phthalic acid,"InChI=1S/C8H6O4/c9-7(10)5-3-1-2-4-6(5)8(11)12/h1-4H,(H,9,10)(H,11,12)",XNGIFLGASWRNHJ-UHFFFAOYSA-N,OC(=O)c1ccccc1C(O)=O,-1.3772
332,B-333,"benzene, 1,4-dimethoxy-2-nitro-","InChI=1S/C8H9NO4/c1-12-6-3-4-8(13-2)7(5-6)9(10)11/h3-5H,1-2H3",UPTOWXNJLZJTGD-UHFFFAOYSA-N,COc1ccc(OC)c(c1)[N+]([O-])=O,-3.1167
333,B-334,"benzeneacetic acid, 2-carboxy-","InChI=1S/C9H8O4/c10-8(11)5-6-3-1-2-4-7(6)9(12)13/h1-4H,5H2,(H,10,11)(H,12,13)",ZHQLTKAVLJKSKR-UHFFFAOYSA-N,OC(=O)Cc1ccccc1C(O)=O,-1.0515
334,B-335,4-chloro-2-nitroaniline,"InChI=1S/C6H5ClN2O2/c7-4-1-2-5(8)6(3-4)9(10)11/h1-3H,8H2",PBGKNXWGYQPUJK-UHFFFAOYSA-N,Nc1ccc(Cl)cc1[N+]([O-])=O,-2.5380000000000003
335,B-336,4-chloro-2-nitrophenol,"InChI=1S/C6H4ClNO3/c7-4-1-2-6(9)5(3-4)8(10)11/h1-3,9H",NWSIFTLPLKCTSX-UHFFFAOYSA-N,Oc1ccc(Cl)cc1[N+]([O-])=O,-3.0902
336,B-337,"d-glycero-d-gulo-heptonic acid, .gamma.-lactone","InChI=1S/C7H12O7/c8-1-2(9)3(10)6-4(11)5(12)7(13)14-6/h2-6,8-12H,1H2",VIVCRCODGMFTFY-UHFFFAOYSA-N,OCC(O)C(O)C1OC(=O)C(O)C1O,0.3348
337,B-338,chlorothymol,"InChI=1S/C10H13ClO/c1-6(2)8-5-9(11)7(3)4-10(8)12/h4-6,12H,1-3H3",KFZXVMNBUMVKLN-UHFFFAOYSA-N,CC(C)c1cc(Cl)c(C)cc1O,-2.2664
338,B-339,menthol,"InChI=1S/C10H20O/c1-7(2)9-5-4-8(3)6-10(9)11/h7-11H,4-6H2,1-3H3/t8-,9+,10-/m1/s1",NOOLISFMXDJSKH-KXUCPTDWSA-N,CC(C)[C@@H]1CC[C@@H](C)C[C@H]1O,-2.5346
339,B-340,5-methyl-2-(1-methylethyl)-cyclohexanone (tr*),"InChI=1S/C10H18O/c1-7(2)9-5-4-8(3)6-10(9)11/h7-9H,4-6H2,1-3H3",NFLGAXVYCFJBMK-UHFFFAOYSA-N,CC(C)C1CCC(C)CC1=O,-2.3506
340,B-341,"2,4-dihydroxybenzoic acid","InChI=1S/C7H6O4/c8-4-1-2-5(7(10)11)6(9)3-4/h1-3,8-9H,(H,10,11)",UIAFKZKHHVMJGS-UHFFFAOYSA-N,OC(=O)c1ccc(O)cc1O,-1.426
341,B-342,2-methoxyaniline,"InChI=1S/C7H9NO/c1-9-7-5-3-2-4-6(7)8/h2-5H,8H2,1H3",VMPITZXILSNTON-UHFFFAOYSA-N,COc1ccccc1N,-0.9901
342,B-343,1-bromonaphthalene,InChI=1S/C10H7Br/c11-10-7-3-5-8-4-1-2-6-9(8)10/h1-7H,DLKQHBOKULLWDQ-UHFFFAOYSA-N,Brc1cccc2ccccc12,-4.3468
343,B-344,l-sparteine,"InChI=1S/C15H26N2/c1-3-7-16-11-13-9-12(14(16)5-1)10-17-8-4-2-6-15(13)17/h12-15H,1-11H2/t12-,13-,14-,15+/m0/s1",SLRCCWJSBJZJBV-ZQDZILKHSA-N,C1CCN2C[C@@H]3C[C@@H](CN4CCCC[C@H]34)[C@@H]2C1,-1.8871
344,B-345,penicillic acid,"InChI=1S/C8H10O4/c1-5(2)8(11)6(12-3)4-7(9)10/h4H,1H2,2-3H3,(H,9,10)",VOUGEZYPVGAPBB-UHFFFAOYSA-N,COC(=CC(O)=O)C(=O)C(C)=C,-0.9299
345,B-346,"d-gluconic acid, .delta.-lactone","InChI=1S/C6H10O6/c7-1-2-3(8)4(9)5(10)6(11)12-2/h2-5,7-10H,1H2",PHOQVHQSTUBQQK-UHFFFAOYSA-N,OCC1OC(=O)C(O)C(O)C1O,0.5201
346,B-347,"4,4-bis(dimethylamino)benzophenone","InChI=1S/C17H20N2O/c1-18(2)15-9-5-13(6-10-15)17(20)14-7-11-16(12-8-14)19(3)4/h5-12H,1-4H3",VVBLNCFGVYUYGU-UHFFFAOYSA-N,CN(C)c1ccc(cc1)C(=O)c2ccc(cc2)N(C)C,-2.8267