,ID,Name,InChI,InChIKey,SMILES,Solubility
2784,B-2785,hexachlorodibenzo-p-dioxin,InChI=1S/C12H2Cl6O2/c13-3-1-5-6(2-4(3)14)20-12-10(18)8(16)7(15)9(17)11(12)19-5/h1-2H,WCYYQNSQJHPVMG-UHFFFAOYSA-N,Clc1cc2Oc3c(Cl)c(Cl)c(Cl)c(Cl)c3Oc2cc1Cl,-10.99
2785,B-2786,dipropylene glycol methyl ether,"InChI=1S/C7H16O3/c1-6(4-8)10-5-7(2)9-3/h6-8H,4-5H2,1-3H3",CUDYYMUUJHLCGZ-UHFFFAOYSA-N,COC(C)COC(C)CO,0.8292
2786,B-2787,orbencarb,"InChI=1S/C12H16ClNOS/c1-3-14(4-2)12(15)16-9-10-7-5-6-8-11(10)13/h5-8H,3-4,9H2,1-2H3",LLLFASISUZUJEQ-UHFFFAOYSA-N,CCN(CC)C(=O)SCc1ccccc1Cl,-4.031000000000001
2787,B-2788,prothiophos,"InChI=1S/C11H15Cl2O2PS2/c1-3-7-18-16(17,14-4-2)15-11-6-5-9(12)8-10(11)13/h5-6,8H,3-4,7H2,1-2H3",FITIWKDOCAUBQD-UHFFFAOYSA-N,CCCS[P](=S)(OCC)Oc1ccc(Cl)cc1Cl,-6.693
2788,B-2789,butocarboxim,"InChI=1S/C7H14N2O2S/c1-5(6(2)12-4)9-11-7(10)8-3/h6H,1-4H3,(H,8,10)/b9-5-",SFNPDDSJBGRXLW-UITAMQMPSA-N,CNC(=O)O\N=C(\C)C(C)SC,-0.7353
2789,B-2790,butoxycarboxim,"InChI=1S/C7H14N2O4S/c1-5(6(2)14(4,11)12)9-13-7(10)8-3/h6H,1-4H3,(H,8,10)/b9-5+",CTJBHIROCMPUKL-WEVVVXLNSA-N,CNC(=O)O\N=C(/C)C(C)[S](C)(=O)=O,-0.0267
2790,B-2791,heptenophos,"InChI=1S/C9H12ClO4P/c1-12-15(11,13-2)14-9-7-4-3-6(7)5-8(9)10/h3-4,6-7H,5H2,1-2H3",BFESKOTYBVOOQX-UHFFFAOYSA-N,CO[P](=O)(OC)OC1=C(Cl)CC2C=CC12,-2.0566
2791,B-2792,"acetic acid, 2,2',2''-[methylidynetris(thio)]tri","InChI=1S/C7H10O6S3/c8-4(9)1-14-7(15-2-5(10)11)16-3-6(12)13/h7H,1-3H2,(H,8,9)(H,10,11)(H,12,13)",ZBNBQISDCFIEQC-UHFFFAOYSA-N,OC(=O)CSC(SCC(O)=O)SCC(O)=O,-1.4243
2792,B-2793,"2,2',3,4,4',5,5'-heptachlorobiphenyl",InChI=1S/C12H3Cl7/c13-6-3-8(15)7(14)1-4(6)5-2-9(16)11(18)12(19)10(5)17/h1-3H,WBHQEUPUMONIKF-UHFFFAOYSA-N,Clc1cc(Cl)c(cc1Cl)c2cc(Cl)c(Cl)c(Cl)c2Cl,-8.0115
2793,B-2794,"2,2',3,3',4,4',5-heptachlorobiphenyl",InChI=1S/C12H3Cl7/c13-6-2-1-4(8(15)10(6)17)5-3-7(14)11(18)12(19)9(5)16/h1-3H,RMPWIIKNWPVWNG-UHFFFAOYSA-N,Clc1ccc(c(Cl)c1Cl)c2cc(Cl)c(Cl)c(Cl)c2Cl,-8.0566
2794,B-2795,"dl-alanine, n-(2-chlorophenyl)-","InChI=1S/C9H10ClNO2/c1-6(9(12)13)11-8-5-3-2-4-7(8)10/h2-6,11H,1H3,(H,12,13)",AWRNWLYWQPIEDM-UHFFFAOYSA-N,CC(Nc1ccccc1Cl)C(O)=O,-2.3271
2795,B-2796,tebutam,"InChI=1S/C15H23NO/c1-12(2)16(14(17)15(3,4)5)11-13-9-7-6-8-10-13/h6-10,12H,11H2,1-5H3",RJKCKKDSSSRYCB-UHFFFAOYSA-N,CC(C)N(Cc1ccccc1)C(=O)C(C)(C)C,-2.4704
2796,B-2797,"butanoic acid, 4-(benzoylamino)-","InChI=1S/C11H13NO3/c13-10(14)7-4-8-12-11(15)9-5-2-1-3-6-9/h1-3,5-6H,4,7-8H2,(H,12,15)(H,13,14)",BOZHPKGNNJPZKV-UHFFFAOYSA-N,OC(=O)CCCNC(=O)c1ccccc1,-1.2025
2797,B-2798,diflubenzuron,"InChI=1S/C14H9ClF2N2O2/c15-8-4-6-9(7-5-8)18-14(21)19-13(20)12-10(16)2-1-3-11(12)17/h1-7H,(H2,18,19,20,21)",QQQYTWIFVNKMRW-UHFFFAOYSA-N,Fc1cccc(F)c1C(=O)NC(=O)Nc2ccc(Cl)cc2,-6.5892
2798,B-2799,"butanedioic acid, 2,3-diethyl-, (r*,s*)-","InChI=1S/C8H14O4/c1-3-5(7(9)10)6(4-2)8(11)12/h5-6H,3-4H2,1-2H3,(H,9,10)(H,11,12)",KJXMXCRSMLOXBM-UHFFFAOYSA-N,CCC(C(CC)C(O)=O)C(O)=O,-1.4557
2799,B-2800,sulprofos,"InChI=1S/C12H19O2PS3/c1-4-10-18-15(16,13-5-2)14-11-6-8-12(17-3)9-7-11/h6-9H,4-5,10H2,1-3H3",JXHJNEJVUNHLKO-UHFFFAOYSA-N,CCCS[P](=S)(OCC)Oc1ccc(SC)cc1,-6.0171
2800,B-2801,"benzoic acid, 5-chloro-2-hydroxy-4-methyl-","InChI=1S/C8H7ClO3/c1-4-2-7(10)5(8(11)12)3-6(4)9/h2-3,10H,1H3,(H,11,12)",PNBKMRRXXVGPTJ-UHFFFAOYSA-N,Cc1cc(O)c(cc1Cl)C(O)=O,-3.1248
2801,B-2802,imazalil base,"InChI=1S/C14H14Cl2N2O/c1-2-7-19-14(9-18-6-5-17-10-18)12-4-3-11(15)8-13(12)16/h2-6,8,10,14H,1,7,9H2",PZBPKYOVPCNPJY-UHFFFAOYSA-N,Clc1ccc(C(Cn2ccnc2)OCC=C)c(Cl)c1,-3.2178
2802,B-2803,bilanafos,"InChI=1S/C11H22N3O6P/c1-6(9(15)14-7(2)11(17)18)13-10(16)8(12)4-5-21(3,19)20/h6-8H,4-5,12H2,1-3H3,(H,13,16)(H,14,15)(H,17,18)(H,19,20)/t6-,7-,8-/m0/s1",GINJFDRNADDBIN-FXQIFTODSA-N,C[C@H](NC(=O)[C@H](C)NC(=O)[C@@H](N)CC[P](C)(O)=O)C(O)=O,0.4904
2803,B-2804,"2,2',3,3',4,4',5,5'-octachlorobiphenyl",InChI=1S/C12H2Cl8/c13-5-1-3(7(15)11(19)9(5)17)4-2-6(14)10(18)12(20)8(4)16/h1-2H,DTMRKGRREZAYAP-UHFFFAOYSA-N,Clc1cc(c(Cl)c(Cl)c1Cl)c2cc(Cl)c(Cl)c(Cl)c2Cl,-9.1987
2804,B-2805,"1,2,3,4,6,7,8-heptachlorodibenzo-p-dioxin",InChI=1S/C12HCl7O2/c13-2-1-3-10(7(17)4(2)14)21-12-9(19)6(16)5(15)8(18)11(12)20-3/h1H,WCLNVRQZUKYVAI-UHFFFAOYSA-N,Clc1cc2Oc3c(Cl)c(Cl)c(Cl)c(Cl)c3Oc2c(Cl)c1Cl,-11.2485
2805,B-2806,piroxicam,"InChI=1S/C15H13N3O4S/c1-18-13(15(20)17-12-8-4-5-9-16-12)14(19)10-6-2-3-7-11(10)23(18,21)22/h2-9,20H,1H3,(H,16,17)/b15-13+",LDJVNWFKNMYYNT-FYWRMAATSA-N,CN1C(=C(/O)Nc2ccccn2)/C(=O)c3ccccc3[S]1(=O)=O,-4.1586
2806,B-2807,fenbufen,"InChI=1S/C16H14O3/c17-15(10-11-16(18)19)14-8-6-13(7-9-14)12-4-2-1-3-5-12/h1-9H,10-11H2,(H,18,19)",ZPAKPRAICRBAOD-UHFFFAOYSA-N,OC(=O)CCC(=O)c1ccc(cc1)c2ccccc2,-5.0609
2807,B-2808,butamifos,"InChI=1S/C13H21N2O4PS/c1-5-11(4)14-20(21,18-6-2)19-13-9-10(3)7-8-12(13)15(16)17/h7-9,11H,5-6H2,1-4H3,(H,14,21)",OEYOMNZEMCPTKN-UHFFFAOYSA-N,CCO[P](=S)(NC(C)CC)Oc1cc(C)ccc1[N+]([O-])=O,-4.7299
2808,B-2809,"benzene, 1,1'-oxybis-, hexabromo deriv.",InChI=1S/C12H4Br6O/c13-5-2-8(16)12(9(17)3-5)19-10-4-6(14)1-7(15)11(10)18/h1-4H,OJMHGSMSQZEBFH-UHFFFAOYSA-N,Brc1cc(Br)c(Oc2cc(Br)cc(Br)c2Br)c(Br)c1,-8.1979
2809,B-2810,phosdiphen,"InChI=1S/C14H11Cl4O4P/c1-2-20-23(19,21-13-5-3-9(15)7-11(13)17)22-14-6-4-10(16)8-12(14)18/h3-8H,2H2,1H3",HEMINMLPKZELPP-UHFFFAOYSA-N,CCO[P](=O)(Oc1ccc(Cl)cc1Cl)Oc2ccc(Cl)cc2Cl,-5.774
2810,B-2811,"2,2',3,4'-tetrachlorobiphenyl",InChI=1S/C12H6Cl4/c13-7-4-5-8(11(15)6-7)9-2-1-3-10(14)12(9)16/h1-6H,ALFHIHDQSYXSGP-UHFFFAOYSA-N,Clc1ccc(c(Cl)c1)c2cccc(Cl)c2Cl,-6.6813
2811,B-2812,2-methyl-3-hexyne,"InChI=1S/C7H12/c1-4-5-6-7(2)3/h7H,4H2,1-3H3",POBOUPFSQKXZFZ-UHFFFAOYSA-N,CCC#CC(C)C,-2.7448
2812,B-2813,isothioate,"InChI=1S/C7H17O2PS3/c1-7(2)12-5-6-13-10(11,8-3)9-4/h7H,5-6H2,1-4H3",SPCNPOWOBZQWJK-UHFFFAOYSA-N,CO[P](=S)(OC)SCCSC(C)C,-3.4288
2813,B-2814,"9-octadecenoic acid, 12-(sulfooxy)-","InChI=1S/C18H34O6S/c1-2-3-4-11-14-17(24-25(21,22)23)15-12-9-7-5-6-8-10-13-16-18(19)20/h9,12,17H,2-8,10-11,13-16H2,1H3,(H,19,20)(H,21,22,23)",CYKFQSXTIVGYDT-UHFFFAOYSA-N,CCCCCCC(CC=CCCCCCCCC(O)=O)O[S](O)(=O)=O,-0.5781
2814,B-2815,1-hexadecanol,"InChI=1S/C16H34O/c1-2-3-4-5-6-7-8-9-10-11-12-13-14-15-16-17/h17H,2-16H2,1H3",BXWNKGSJHAJOGX-UHFFFAOYSA-N,CCCCCCCCCCCCCCCCO,-6.7697
2815,B-2816,rovral (iprodione),"InChI=1S/C13H13Cl2N3O3/c1-7(2)16-12(20)17-6-11(19)18(13(17)21)10-4-8(14)3-9(15)5-10/h3-5,7H,6H2,1-2H3,(H,16,20)",ONUFESLQCSAYKA-UHFFFAOYSA-N,CC(C)NC(=O)N1CC(=O)N(C1=O)c2cc(Cl)cc(Cl)c2,-4.3757
2816,B-2817,tiocarbazil,"InChI=1S/C16H25NOS/c1-5-13(3)17(14(4)6-2)16(18)19-12-15-10-8-7-9-11-15/h7-11,13-14H,5-6,12H2,1-4H3",PHSUVQBHRAWOQD-UHFFFAOYSA-N,CCC(C)N(C(C)CC)C(=O)SCc1ccccc1,-5.0484
2817,B-2818,"benzamide, 2-amino-3,5-dichloro-","InChI=1S/C7H6Cl2N2O/c8-3-1-4(7(11)12)6(10)5(9)2-3/h1-2H,10H2,(H2,11,12)",PRKRQUUATBDWTL-UHFFFAOYSA-N,NC(=O)c1cc(Cl)cc(Cl)c1N,-2.0814
2818,B-2819,ribavirin,"InChI=1S/C8H12N4O5/c9-6(16)7-10-2-12(11-7)8-5(15)4(14)3(1-13)17-8/h2-5,8,13-15H,1H2,(H2,9,16)/t3-,4-,5-,8-/m1/s1",IWUCXVSUMQZMFG-AFCXAGJDSA-N,NC(=O)c1ncn(n1)[C@@H]2O[C@H](CO)[C@@H](O)[C@H]2O,-0.2355
2819,B-2820,labetalol,"InChI=1S/C19H24N2O3/c1-13(7-8-14-5-3-2-4-6-14)21-12-18(23)15-9-10-17(22)16(11-15)19(20)24/h2-6,9-11,13,18,21-23H,7-8,12H2,1H3,(H2,20,24)",SGUAFYQXFOLMHL-UHFFFAOYSA-N,CC(CCc1ccccc1)NCC(O)c2ccc(O)c(c2)C(N)=O,-3.4482
2820,B-2821,"benzoic acid, 4-amino-, nonyl ester","InChI=1S/C16H25NO2/c1-2-3-4-5-6-7-8-13-19-16(18)14-9-11-15(17)12-10-14/h9-12H,2-8,13,17H2,1H3",KKGIDNSPWHBLLE-UHFFFAOYSA-N,CCCCCCCCCOC(=O)c1ccc(N)cc1,-6.0
2821,B-2822,validamycin,"InChI=1S/C20H35NO13/c22-3-6-1-8(12(26)15(29)11(6)25)21-9-2-7(4-23)19(17(31)13(9)27)34-20-18(32)16(30)14(28)10(5-24)33-20/h1,7-32H,2-5H2/t7-,8+,9+,10-,11-,12+,13+,14-,15+,16+,17-,18-,19-,20+/m1/s1",JARYYMUOCXVXNK-CSLFJTBJSA-N,OC[C@H]1C[C@H](N[C@H]2C=C(CO)[C@@H](O)[C@H](O)[C@H]2O)[C@H](O)[C@@H](O)[C@@H]1O[C@@H]3O[C@H](CO)[C@@H](O)[C@H](O)[C@H]3O,0.3032
2822,B-2823,metoprolol,"InChI=1S/C15H25NO3/c1-12(2)16-10-14(17)11-19-15-6-4-13(5-7-15)8-9-18-3/h4-7,12,14,16-17H,8-11H2,1-3H3",IUBSYMUCCVWXPE-UHFFFAOYSA-N,COCCc1ccc(OCC(O)CNC(C)C)cc1,-1.1992
2823,B-2824,"benzamide, n-hydroxy-2-iodo-n-phenyl-","InChI=1S/C13H10INO2/c14-12-9-5-4-8-11(12)13(16)15(17)10-6-2-1-3-7-10/h1-9,17H",STYDGEPZWWDNEI-UHFFFAOYSA-N,ON(c1ccccc1)C(=O)c2ccccc2I,-3.5304
2824,B-2825,amikacin,"InChI=1S/C22H43N5O13/c23-2-1-8(29)20(36)27-7-3-6(25)18(39-22-16(34)15(33)13(31)9(4-24)37-22)17(35)19(7)40-21-14(32)11(26)12(30)10(5-28)38-21/h6-19,21-22,28-35H,1-5,23-26H2,(H,27,36)/t6-,7+,8-,9+,10+,11-,12+,13+,14+,15-,16+,17-,18+,19-,21+,22+/m0/s1",LKCWBDHBTVXHDL-RMDFUYIESA-N,NCC[C@H](O)C(=O)N[C@@H]1C[C@H](N)[C@@H](O[C@H]2O[C@H](CN)[C@@H](O)[C@H](O)[C@H]2O)[C@H](O)[C@H]1O[C@H]3O[C@H](CO)[C@@H](O)[C@H](N)[C@H]3O,-0.5004
2825,B-2826,"dl-phenylalanine, n-(aminocarbonyl)-","InChI=1S/C10H12N2O3/c11-10(15)12-8(9(13)14)6-7-4-2-1-3-5-7/h1-5,8H,6H2,(H,13,14)(H3,11,12,15)/p-1/t8-/m0/s1",IPWQOZCSQLTKOI-QMMMGPOBSA-M,NC(=O)N[C@@H](Cc1ccccc1)C([O-])=O,-2.0958
2826,B-2827,"pyrido[3,2-d]pyrimidin-4(1h)-one","InChI=1S/C7H5N3O/c11-7-6-5(9-4-10-7)2-1-3-8-6/h1-4H,(H,9,10,11)",FSKYZRCACCHDGR-UHFFFAOYSA-N,O=C1N=CNc2cccnc12,-2.0656
2827,B-2828,"2',3,5-trichlorobiphenyl",InChI=1S/C12H7Cl3/c13-9-5-8(6-10(14)7-9)11-3-1-2-4-12(11)15/h1-7H,GXVMAQACUOSFJF-UHFFFAOYSA-N,Clc1cc(Cl)cc(c1)c2ccccc2Cl,-6.2999
2828,B-2829,"acetamide, 2,2-dichloro-n,n-di-2-propenyl-","InChI=1S/C8H11Cl2NO/c1-3-5-11(6-4-2)8(12)7(9)10/h3-4,7H,1-2,5-6H2",YRMLFORXOOIJDR-UHFFFAOYSA-N,ClC(Cl)C(=O)N(CC=C)CC=C,-1.6193
2829,B-2830,1-chloro-2-nitropropane,"InChI=1S/C3H6ClNO2/c1-3(2-4)5(6)7/h3H,2H2,1H3/t3-/m0/s1",FPJNQQRSBJPGHM-VKHMYHEASA-N,C[C@@H](CCl)[N+]([O-])=O,-1.1887
2830,B-2831,"1,2-bis(2,4,6-tribromophenoxy)ethane","InChI=1S/C14H8Br6O2/c15-7-3-9(17)13(10(18)4-7)21-1-2-22-14-11(19)5-8(16)6-12(14)20/h3-6H,1-2H2",YATIGPZCMOYEGE-UHFFFAOYSA-N,Brc1cc(Br)c(OCCOc2c(Br)cc(Br)cc2Br)c(Br)c1,-6.5363
2831,B-2832,heptachlorodibenzo-p-dioxin,InChI=1S/C12HCl7O2/c13-2-1-3-10(7(17)4(2)14)21-12-9(19)6(16)5(15)8(18)11(12)20-3/h1H,WCLNVRQZUKYVAI-UHFFFAOYSA-N,Clc1cc2Oc3c(Cl)c(Cl)c(Cl)c(Cl)c3Oc2c(Cl)c1Cl,-11.4795
2832,B-2833,etacelasil,"InChI=1S/C11H25ClO6Si/c1-13-5-8-16-19(11-4-12,17-9-6-14-2)18-10-7-15-3/h4-11H2,1-3H3",SLZWEMYSYKOWCG-UHFFFAOYSA-N,COCCO[Si](CCCl)(OCCOC)OCCOC,-1.1029
2833,B-2834,perfluidone,"InChI=1S/C14H12F3NO4S2/c1-10-9-12(23(19,20)11-5-3-2-4-6-11)7-8-13(10)18-24(21,22)14(15,16)17/h2-9,18H,1H3",WHTBVLXUSXVMEV-UHFFFAOYSA-N,Cc1cc(ccc1N[S](=O)(=O)C(F)(F)F)[S](=O)(=O)c2ccccc2,-3.8009
2834,B-2835,"5-pyrimidinecarboxylic aicd, 1,2,3,4-tetrahydro-","InChI=1S/C7H8N2O3S/c1-2-12-6(11)4-3-8-7(13)9-5(4)10/h3H,2H2,1H3,(H2,8,9,10,13)",FQFSHLBWRUOCPX-UHFFFAOYSA-N,CCOC(=O)C1=CNC(=S)NC1=O,-2.0985
2835,B-2836,"d-glutamine, n2-l-leucyl-","InChI=1S/C11H21N3O4/c1-6(2)5-7(12)10(16)14-8(11(17)18)3-4-9(13)15/h6-8H,3-5,12H2,1-2H3,(H2,13,15)(H,14,16)(H,17,18)/t7-,8+/m0/s1",JYOAXOMPIXKMKK-JGVFFNPUSA-N,CC(C)C[C@H](N)C(=O)N[C@H](CCC(N)=O)C(O)=O,-1.5687
2836,B-2837,biocozamycin,"InChI=1S/C12H18N2O7/c1-6-3-4-21-12(7(16)10(2,19)5-15)9(18)13-11(6,20)8(17)14-12/h7,15-16,19-20H,1,3-5H2,2H3,(H,13,18)(H,14,17)/t7?,10?,11-,12+/m1/s1",WOUDXEYYJPOSNE-CJYLUKGNSA-N,CC(O)(CO)C(O)[C@@]12NC(=O)[C@@](O)(NC1=O)C(=C)CCO2,-0.1971
2837,B-2838,"acetic acid, (2-bromo-4,6-dimethylphenoxy)-","InChI=1S/C10H11BrO3/c1-6-3-7(2)10(8(11)4-6)14-5-9(12)13/h3-4H,5H2,1-2H3,(H,12,13)",XISIDZGSQIHSIK-UHFFFAOYSA-N,Cc1cc(C)c(OCC(O)=O)c(Br)c1,-3.1234
2838,B-2839,etrimfos,"InChI=1S/C10H17N2O4PS/c1-5-8-11-9(15-6-2)7-10(12-8)16-17(18,13-3)14-4/h7H,5-6H2,1-4H3",FGIWFCGDPUIBEZ-UHFFFAOYSA-N,CCOc1cc(O[P](=S)(OC)OC)nc(CC)n1,-3.8638
2839,B-2840,minoxidil,"InChI=1S/C9H15N5O/c10-7-6-8(12-9(11)14(7)15)13-4-2-1-3-5-13/h6,11,15H,1-5,10H2",ZIMGGGWCDYVHOY-UHFFFAOYSA-N,NC1=CC(=NC(=N)N1O)N2CCCCC2,-1.9782
2840,B-2841,penbutolol,"InChI=1S/C18H29NO2/c1-18(2,3)19-12-15(20)13-21-17-11-7-6-10-16(17)14-8-4-5-9-14/h6-7,10-11,14-15,19-20H,4-5,8-9,12-13H2,1-3H3/t15-/m1/s1",KQXKVJAGOJTNJS-OAHLLOKOSA-N,CC(C)(C)NC[C@@H](O)COc1ccccc1C2CCCC2,-1.6195
2841,B-2842,"2,2',3,4',5',6-pcb",InChI=1S/C12H4Cl6/c13-6-1-2-7(14)12(18)11(6)5-3-9(16)10(17)4-8(5)15/h1-4H,LKHLFUVHHXCNJH-UHFFFAOYSA-N,Clc1ccc(Cl)c(c1Cl)c2cc(Cl)c(Cl)cc2Cl,-7.93
2842,B-2843,"2,2',3,3',4,6'-hexachlorobiphenyl",InChI=1S/C12H4Cl6/c13-6-3-4-7(14)11(17)9(6)5-1-2-8(15)12(18)10(5)16/h1-4H,OKBJVIVEFXPEOU-UHFFFAOYSA-N,Clc1ccc(c(Cl)c1Cl)c2c(Cl)ccc(Cl)c2Cl,-7.65
2843,B-2844,"2,3,3',4,4',5-hexachlorobiphenyl",InChI=1S/C12H4Cl6/c13-7-2-1-5(3-8(7)14)6-4-9(15)11(17)12(18)10(6)16/h1-4H,LCXMEXLGMKFLQO-UHFFFAOYSA-N,Clc1ccc(cc1Cl)c2cc(Cl)c(Cl)c(Cl)c2Cl,-7.8306
2844,B-2845,"2,2',3,3',4,5,6'-heptachlorobiphenyl",InChI=1S/C12H3Cl7/c13-5-1-2-6(14)10(17)8(5)4-3-7(15)11(18)12(19)9(4)16/h1-3H,ZDLMBNHYTPHDLF-UHFFFAOYSA-N,Clc1ccc(Cl)c(c1Cl)c2cc(Cl)c(Cl)c(Cl)c2Cl,-8.5901
2845,B-2846,"2,3',6-trichlorobiphenyl",InChI=1S/C12H7Cl3/c13-9-4-1-3-8(7-9)12-10(14)5-2-6-11(12)15/h1-7H,VQOFJPFYTCHPTR-UHFFFAOYSA-N,Clc1cccc(c1)c2c(Cl)cccc2Cl,-6.8245
2846,B-2847,"8-quinolinol, 2-methyl-5-nitro-","InChI=1S/C10H8N2O3/c1-6-2-3-7-8(12(14)15)4-5-9(13)10(7)11-6/h2-5,13H,1H3",XYPACLZTPMHPLB-UHFFFAOYSA-N,Cc1ccc2c(ccc(O)c2n1)[N+]([O-])=O,-3.9598
2847,B-2848,"ethane, 1,1-bis(methylsulfonyl)-","InChI=1S/C4H10O4S2/c1-4(9(2,5)6)10(3,7)8/h4H,1-3H3",LLGSMJDXJRKMFD-UHFFFAOYSA-N,CC([S](C)(=O)=O)[S](C)(=O)=O,-1.4188
2848,B-2849,"alanine, n-(aminocarbonyl)-2-methyl-","InChI=1S/C5H10N2O3/c1-5(2,3(8)9)7-4(6)10/h1-2H3,(H,8,9)(H3,6,7,10)",FMXWPTBQTITILA-UHFFFAOYSA-N,CC(C)(NC(N)=O)C(O)=O,-1.1648
2849,B-2850,"2-propenoic acid, 3-(2-ethoxyphenyl)-, (z)-","InChI=1S/C11H12O3/c1-2-14-10-6-4-3-5-9(10)7-8-11(12)13/h3-8H,2H2,1H3,(H,12,13)/b8-7-",UXTDCJJEJZCEBF-FPLPWBNLSA-N,CCOc1ccccc1\C=C/C(O)=O,-2.5234
2850,B-2851,diisopropylnaphthalene,"InChI=1S/C16H20/c1-11(2)14-10-9-13-7-5-6-8-15(13)16(14)12(3)4/h5-12H,1-4H3",IAUKWGFWINVWKS-UHFFFAOYSA-N,CC(C)c1ccc2ccccc2c1C(C)C,-6.2856
2851,B-2852,glyphosate isopropylamine salt,"InChI=1S/C3H8NO5P.C3H9N/c5-3(6)1-4-2-10(7,8)9;1-3(2)4/h4H,1-2H2,(H,5,6)(H2,7,8,9);3H,4H2,1-2H3",ZEKANFGSDXODPD-UHFFFAOYSA-N,CC(C)N.OC(=O)CNC[P](O)(O)=O,0.6629
2852,B-2853,Diethatyl-ethyl,"InChI=1S/C16H22ClNO3/c1-4-12-8-7-9-13(5-2)16(12)18(14(19)10-17)11-15(20)21-6-3/h7-9H,4-6,10-11H2,1-3H3",WFKSADNZWSKCRZ-UHFFFAOYSA-N,CCOC(=O)CN(C(=O)CCl)c1c(CC)cccc1CC,-3.4727
2853,B-2854,propane-2-thiosulfinic acid s-isopropyl ester,"InChI=1S/C6H14OS2/c1-5(2)8-9(7)6(3)4/h5-6H,1-4H3",IYZLJTJFIUHNRL-UHFFFAOYSA-N,CC(C)S[S](=O)C(C)C,-0.823
2854,B-2855,"2,4-pentanediol, 2-methyl-4-(1-naphthalenyl)-","InChI=1S/C16H20O2/c1-15(2,17)11-16(3,18)14-10-6-8-12-7-4-5-9-13(12)14/h4-10,17-18H,11H2,1-3H3",VIDCUYMAESSAFM-UHFFFAOYSA-N,CC(C)(O)CC(C)(O)c1cccc2ccccc12,-3.2419
2855,B-2856,"2,8-dichlorodibenzo-p-dioxin",InChI=1S/C12H6Cl2O2/c13-7-1-3-9-11(5-7)16-12-6-8(14)2-4-10(12)15-9/h1-6H,WMWJCKBJUQDYLM-UHFFFAOYSA-N,Clc1ccc2Oc3ccc(Cl)cc3Oc2c1,-7.1806
2856,B-2857,octachlorodibenzofuran,InChI=1S/C12Cl8O/c13-3-1-2-4(14)6(16)8(18)10(20)12(2)21-11(1)9(19)7(17)5(3)15,RHIROFAGUQOFLU-UHFFFAOYSA-N,Clc1c(Cl)c(Cl)c2c(oc3c(Cl)c(Cl)c(Cl)c(Cl)c23)c1Cl,-11.5827
2857,B-2858,3-bromo-2-iodo-acrylic acid,"InChI=1S/C3H2BrIO2/c4-1-2(5)3(6)7/h1H,(H,6,7)",QCXZPFMTVRXKMN-UHFFFAOYSA-N,OC(=O)C(I)=CBr,-1.2118
2858,B-2859,thiofanox,"InChI=1S/C9H18N2O2S/c1-9(2,3)7(6-14-5)11-13-8(12)10-4/h6H2,1-5H3,(H,10,12)/b11-7-",FZSVSABTBYGOQH-XFFZJAGNSA-N,CNC(=O)O\N=C(\CSC)C(C)(C)C,-1.6231
2859,B-2860,dinocap,"InChI=1S/C18H24N2O6/c1-7-8-15(21)26-16-13(18(5,6)11-17(2,3)4)9-12(19(22)23)10-14(16)20(24)25/h7-10H,11H2,1-6H3/b8-7+",RDUUEJDFJHUJFG-BQYQJAHWSA-N,C/C=C/C(=O)Oc1c(cc(cc1C(C)(C)CC(C)(C)C)[N+]([O-])=O)[N+]([O-])=O,-4.9595
2860,B-2861,"2,2',4,4',6-pentachlorobiphenyl",InChI=1S/C12H5Cl5/c13-6-1-2-8(9(15)3-6)12-10(16)4-7(14)5-11(12)17/h1-5H,RKUAZJIXKHPFRK-UHFFFAOYSA-N,Clc1ccc(c(Cl)c1)c2c(Cl)cc(Cl)cc2Cl,-7.66
2861,B-2862,cyphenothrin,"InChI=1S/C24H25NO3/c1-16(2)13-20-22(24(20,3)4)23(26)28-21(15-25)17-9-8-12-19(14-17)27-18-10-6-5-7-11-18/h5-14,20-22H,1-4H3",FJDPATXIBIBRIM-UHFFFAOYSA-N,CC(C)=CC1C(C(=O)OC(C#N)c2cccc(Oc3ccccc3)c2)C1(C)C,-7.5746
2862,B-2863,fenpropathrin,"InChI=1S/C22H23NO3/c1-21(2)19(22(21,3)4)20(24)26-18(14-23)15-9-8-12-17(13-15)25-16-10-6-5-7-11-16/h5-13,18-19H,1-4H3",XQUXKZZNEFRCAW-UHFFFAOYSA-N,CC1(C)C(C(=O)OC(C#N)c2cccc(Oc3ccccc3)c2)C1(C)C,-6.0248
2863,B-2864,"hexanoic acid, 4-ethyl-5-oxo-","InChI=1S/C8H14O3/c1-3-7(6(2)9)4-5-8(10)11/h7H,3-5H2,1-2H3,(H,10,11)",LXFXKKKZRKUZPC-UHFFFAOYSA-N,CCC(CCC(O)=O)C(C)=O,-0.451
2864,B-2865,"acetamide, 2-cyano-n-methyl-n- (methylamino)carb","InChI=1S/C6H9N3O2/c1-8-6(11)9(2)5(10)3-4-7/h3H2,1-2H3,(H,8,11)",DBEIAMRYPAJZHO-UHFFFAOYSA-N,CNC(=O)N(C)C(=O)CC#N,0.1709
2865,B-2866,"1,1'-biphenyl, 2,3,3',4,4',5,5'-heptachloro-",InChI=1S/C12H3Cl7/c13-6-1-4(2-7(14)10(6)17)5-3-8(15)11(18)12(19)9(5)16/h1-3H,XUAWBXBYHDRROL-UHFFFAOYSA-N,Clc1cc(cc(Cl)c1Cl)c2cc(Cl)c(Cl)c(Cl)c2Cl,-8.7202
2866,B-2867,"acetamide, 2-(acetylamino)-n-phenyl-","InChI=1S/C10H12N2O2/c1-8(13)11-7-10(14)12-9-5-3-2-4-6-9/h2-6H,7H2,1H3,(H,11,13)(H,12,14)",WTMBVEKOTAHGAB-UHFFFAOYSA-N,CC(=O)NCC(=O)Nc1ccccc1,-1.5678
2867,B-2868,oxadiargyl,"InChI=1S/C15H14Cl2N2O3/c1-5-6-21-12-8-11(9(16)7-10(12)17)19-14(20)22-13(18-19)15(2,3)4/h1,7-8H,6H2,2-4H3",DVOODWOZJVJKQR-UHFFFAOYSA-N,CC(C)(C)C1=NN(C(=O)O1)c2cc(OCC#C)c(Cl)cc2Cl,-5.9648
2868,B-2869,"1h-purine-2,6-dione, 1-ethyl-3,7-dihydro-3,7-dim","InChI=1S/C9H12N4O2/c1-4-13-8(14)6-7(10-5-11(6)2)12(3)9(13)15/h5H,4H2,1-3H3",KRVVZPXPQUPXJE-UHFFFAOYSA-N,CCN1C(=O)N(C)c2ncn(C)c2C1=O,-0.7190000000000001
2869,B-2870,ethyl 2-formamido-(phenylvinyl)acrylate,"InChI=1S/C14H15NO3/c1-2-18-14(17)13(15-11-16)10-6-9-12-7-4-3-5-8-12/h3-11H,2H2,1H3,(H,15,16)",RZONVOYARNZXEO-UHFFFAOYSA-N,CCOC(=O)C(NC=O)=CC=Cc1ccccc1,-3.3483
2870,B-2871,"tris(1,3-dichloropropyl) phosphate","InChI=1S/C9H15Cl6O4P/c10-4-1-7(13)17-20(16,18-8(14)2-5-11)19-9(15)3-6-12/h7-9H,1-6H2",DHNUXDYAOVSGII-UHFFFAOYSA-N,ClCCC(Cl)O[P](=O)(OC(Cl)CCCl)OC(Cl)CCCl,-3.6344
2871,B-2872,"1,1'-biphenyl, 2,2',3,3',4,5',6-heptachloro-",InChI=1S/C12H3Cl7/c13-4-1-5(10(17)7(15)2-4)9-6(14)3-8(16)11(18)12(9)19/h1-3H,KJBDZJFSYQUNJT-UHFFFAOYSA-N,Clc1cc(Cl)c(Cl)c(c1)c2c(Cl)cc(Cl)c(Cl)c2Cl,-8.68
2872,B-2873,"2,2',3,3',4,5',6,6'-octachlorobiphenyl",InChI=1S/C12H2Cl8/c13-3-1-6(16)11(19)12(20)7(3)8-9(17)4(14)2-5(15)10(8)18/h1-2H,LJQOBQLZTUSEJA-UHFFFAOYSA-N,Clc1cc(Cl)c(c(Cl)c1Cl)c2c(Cl)c(Cl)cc(Cl)c2Cl,-9.1999
2873,B-2874,"2,2',3,3',4,4',5,5',6-nonachlorobiphenyl",InChI=1S/C12HCl9/c13-3-1-2(5(14)9(18)6(3)15)4-7(16)10(19)12(21)11(20)8(4)17/h1H,JFIMDKGRGPNPRQ-UHFFFAOYSA-N,Clc1cc(c(Cl)c(Cl)c1Cl)c2c(Cl)c(Cl)c(Cl)c(Cl)c2Cl,-10.2688
2874,B-2875,pendimethalin,"InChI=1S/C13H19N3O4/c1-5-10(6-2)14-12-11(15(17)18)7-8(3)9(4)13(12)16(19)20/h7,10,14H,5-6H2,1-4H3",CHIFOSRWCNZCFN-UHFFFAOYSA-N,CCC(CC)Nc1c(cc(C)c(C)c1[N+]([O-])=O)[N+]([O-])=O,-5.9721
2875,B-2876,methoprene,"InChI=1S/C19H34O3/c1-15(2)22-18(20)14-17(4)11-8-10-16(3)12-9-13-19(5,6)21-7/h8,11,14-16H,9-10,12-13H2,1-7H3/b11-8+,17-14+",NFGXHKASABOEEW-LDRANXPESA-N,COC(C)(C)CCCC(C)C\C=C\C(C)=C\C(=O)OC(C)C,-5.3459
2876,B-2877,"2-pteridinamine, n,n-dimethyl-","InChI=1S/C8H9N5/c1-13(2)8-11-5-6-7(12-8)10-4-3-9-6/h3-5H,1-2H3",JXKUCNDDDQEMSS-UHFFFAOYSA-N,CN(C)c1ncc2nccnc2n1,0.3586
2877,B-2878,hydroprene,"InChI=1S/C17H30O2/c1-6-19-17(18)13-16(5)12-8-11-15(4)10-7-9-14(2)3/h8,12-15H,6-7,9-11H2,1-5H3/b12-8+,16-13+",FYQGBXGJFWXIPP-UEVLXMDPSA-N,CCOC(=O)\C=C(C)\C=C\CC(C)CCCC(C)C,-5.1246
2878,B-2879,hydroprene,"InChI=1S/C17H30O2/c1-6-19-17(18)13-16(5)12-8-11-15(4)10-7-9-14(2)3/h8,12-15H,6-7,9-11H2,1-5H3/b12-8+,16-13+",FYQGBXGJFWXIPP-UEVLXMDPSA-N,CCOC(=O)\C=C(C)\C=C\CC(C)CCCC(C)C,-5.1246
2879,B-2880,sparticide,InChI=1S/C10H4Cl2FNO2/c11-7-8(12)10(16)14(9(7)15)6-3-1-5(13)2-4-6/h1-4H,IPENDKRRWFURRE-UHFFFAOYSA-N,Fc1ccc(cc1)N2C(=O)C(=C(Cl)C2=O)Cl,-4.6442
2880,B-2881,"4-methoxy-3,3'-dimethylbenzophenone","InChI=1S/C16H16O2/c1-11-5-4-6-13(9-11)16(17)14-7-8-15(18-3)12(2)10-14/h4-10H,1-3H3",BWPYBAJTDILQPY-UHFFFAOYSA-N,COc1ccc(cc1C)C(=O)c2cccc(C)c2,-5.0797
2881,B-2882,"d-mannose, (aminocarbonyl)hydrazone","InChI=1S/C7H15N3O6/c8-7(16)10-9-1-3(12)5(14)6(15)4(13)2-11/h1,3-6,11-15H,2H2,(H3,8,10,16)/t3-,4-,5-,6-/m1/s1",NOUQGOYNEGWDCZ-KVTDHHQDSA-N,NC(=O)NN=C[C@@H](O)[C@@H](O)[C@H](O)[C@H](O)CO,-0.53