,ID,Name,InChI,InChIKey,SMILES,Solubility
1219,B-1220,"2,4,6-trichlorophenoxyacetic acid","InChI=1S/C8H5Cl3O3/c9-4-1-5(10)8(6(11)2-4)14-3-7(12)13/h1-2H,3H2,(H,12,13)",KZDCLQBOHGBWOI-UHFFFAOYSA-N,OC(=O)COc1c(Cl)cc(Cl)cc1Cl,-3.0133
1220,B-1221,"3,4-piperidinedicarboxylic acid","InChI=1S/C7H11NO4/c9-6(10)4-1-2-8-3-5(4)7(11)12/h4-5,8H,1-3H2,(H,9,10)(H,11,12)",UBLWASUIZDSYFN-UHFFFAOYSA-N,OC(=O)C1CCNCC1C(O)=O,-0.5395
1221,B-1222,1-aminoacridine,"InChI=1S/C13H10N2/c14-11-5-3-7-13-10(11)8-9-4-1-2-6-12(9)15-13/h1-8H,14H2",LOMMDWBTANPFEJ-UHFFFAOYSA-N,Nc1cccc2nc3ccccc3cc12,-4.2219999999999995
1222,B-1223,meso-hydrobenzoin,"InChI=1S/C14H14O2/c15-13(11-7-3-1-4-8-11)14(16)12-9-5-2-6-10-12/h1-10,13-16H",IHPDTPWNFBQHEB-UHFFFAOYSA-N,OC(C(O)c1ccccc1)c2ccccc2,-1.933
1223,B-1224,dl-benzoin,"InChI=1S/C14H12O2/c15-13(11-7-3-1-4-8-11)14(16)12-9-5-2-6-10-12/h1-10,13,15H",ISAOCJYIOMOJEB-UHFFFAOYSA-N,OC(c1ccccc1)C(=O)c2ccccc2,-2.8497
1224,B-1225,"2,6-diethylaniline","InChI=1S/C10H15N/c1-3-8-6-5-7-9(4-2)10(8)11/h5-7H,3-4,11H2,1-2H3",FOYHNROGBXVLLX-UHFFFAOYSA-N,CCc1cccc(CC)c1N,-2.3478
1225,B-1226,2-bromonaphthalene,InChI=1S/C10H7Br/c11-10-6-5-8-3-1-2-4-9(8)7-10/h1-7H,APSMUYYLXZULMS-UHFFFAOYSA-N,Brc1ccc2ccccc2c1,-4.4001
1226,B-1227,3-quinolinol,"InChI=1S/C9H7NO/c11-8-5-7-3-1-2-4-9(7)10-6-8/h1-6,11H",IQQDNMHUOLMLNJ-UHFFFAOYSA-N,Oc1cnc2ccccc2c1,-2.3925
1227,B-1228,7-quinolinol,"InChI=1S/C9H7NO/c11-8-4-3-7-2-1-5-10-9(7)6-8/h1-6,11H",XCRPPAPDRUBKRJ-UHFFFAOYSA-N,[O-]c1ccc2ccc[nH+]c2c1,-2.5038
1228,B-1229,chlorazine,"InChI=1S/C11H20ClN5/c1-5-16(6-2)10-13-9(12)14-11(15-10)17(7-3)8-4/h5-8H2,1-4H3",QHXDTLYEHWXDSO-UHFFFAOYSA-N,CCN(CC)c1nc(Cl)nc(n1)N(CC)CC,-4.4112
1229,B-1230,anatabine,"InChI=1S/C10H12N2/c1-2-7-12-10(5-1)9-4-3-6-11-8-9/h1-4,6,8,10,12H,5,7H2/t10-/m0/s1",SOPPBXUYQGUQHE-JTQLQIEISA-N,C1N[C@@H](CC=C1)c2cccnc2,0.7953
1230,B-1231,"2,3'-bipyridine",InChI=1S/C10H8N2/c1-2-7-12-10(5-1)9-4-3-6-11-8-9/h1-8H,VEKIYFGCEAJDDT-UHFFFAOYSA-N,c1ccc(nc1)c2cccnc2,-0.5916
1231,B-1232,"8h-purine-8-thione, 1,7-dihydro-","InChI=1S/C5H4N4S/c10-5-8-3-1-6-2-7-4(3)9-5/h1-2H,(H2,6,7,8,9,10)",VABISHCLVYMGAU-UHFFFAOYSA-N,S=C1Nc2cncnc2N1,-2.5243
1232,B-1233,potassium oxalate,"InChI=1S/C2H2O4.2K/c3-1(4)2(5)6;;/h(H,3,4)(H,5,6);;/q;2*+1/p-2",IRXRGVFLQOSHOH-UHFFFAOYSA-L,[K+].[K+].[O-]C(=O)C([O-])=O,0.1773
1233,B-1234,"1,2-dimethylcyclohexane","InChI=1S/C8H16/c1-7-5-3-4-6-8(7)2/h7-8H,3-6H2,1-2H3",KVZJLSYJROEPSQ-UHFFFAOYSA-N,CC1CCCCC1C,-4.2719
1234,B-1235,"1,2-butanediol","InChI=1S/C4H10O2/c1-2-4(6)3-5/h4-6H,2-3H2,1H3",BMRWNKZVCUKKSR-UHFFFAOYSA-N,CCC(O)CO,1.0452
1235,B-1236,allethrin,"InChI=1S/C19H26O3/c1-7-8-13-12(4)16(10-15(13)20)22-18(21)17-14(9-11(2)3)19(17,5)6/h7,9,14,16-17H,1,8,10H2,2-6H3",ZCVAOQKBXKSDMS-UHFFFAOYSA-N,CC(C)=CC1C(C(=O)OC2CC(=O)C(=C2C)CC=C)C1(C)C,-4.8179
1236,B-1237,"alanine, n-(aminocarbonyl)-","InChI=1S/C4H8N2O3/c1-2(3(7)8)6-4(5)9/h2H,1H3,(H,7,8)(H3,5,6,9)/t2-/m0/s1",LUSWEUMSEVLFEQ-REOHCLBHSA-N,C[C@H](NC(N)=O)C(O)=O,-0.7845
1237,B-1238,"phenol, 3-(1,1-dimethylethyl)-","InChI=1S/C10H14O/c1-10(2,3)8-5-4-6-9(11)7-8/h4-7,11H,1-3H3",CYEKUDPFXBLGHH-UHFFFAOYSA-N,CC(C)(C)c1cccc(O)c1,-1.8614
1238,B-1239,3-bromo-1-nitrobenzene,InChI=1S/C6H4BrNO2/c7-5-2-1-3-6(4-5)8(9)10/h1-4H,FWIROFMBWVMWLB-UHFFFAOYSA-N,[O-][N+](=O)c1cccc(Br)c1,-1.3054
1239,B-1240,"1-propene-1,2,3-tricarboxylic acid, (z)-","InChI=1S/C6H6O6/c7-4(8)1-3(6(11)12)2-5(9)10/h1H,2H2,(H,7,8)(H,9,10)(H,11,12)/b3-1+",GTZCVFVGUGFEME-HNQUOIGGSA-N,OC(=O)C\C(=C/C(O)=O)C(O)=O,0.3612
1240,B-1241,lactitol,"InChI=1S/C12H24O11/c13-1-4(16)7(18)11(5(17)2-14)23-12-10(21)9(20)8(19)6(3-15)22-12/h4-21H,1-3H2",VQHSOMBJVWLPSR-UHFFFAOYSA-N,OCC(O)C(O)C(OC1OC(CO)C(O)C(O)C1O)C(O)CO,0.2872
1241,B-1242,melibiose,"InChI=1S/C12H22O11/c13-1-3-5(14)8(17)10(19)12(23-3)21-2-4-6(15)7(16)9(18)11(20)22-4/h3-20H,1-2H2",DLRVVLDZNNYCBX-UHFFFAOYSA-N,OCC1OC(OCC2OC(O)C(O)C(O)C2O)C(O)C(O)C1O,0.4656
1242,B-1243,"3,5-dinitrophenol","InChI=1S/C6H4N2O5/c9-6-2-4(7(10)11)1-5(3-6)8(12)13/h1-3,9H",UEMBNLWZFIWQFL-UHFFFAOYSA-N,Oc1cc(cc(c1)[N+]([O-])=O)[N+]([O-])=O,-1.663
1243,B-1244,"1,4-benzenedicarboxylic acid, 2-bromo-","InChI=1S/C8H5BrO4/c9-6-3-4(7(10)11)1-2-5(6)8(12)13/h1-3H,(H,10,11)(H,12,13)",QPBGNSFASPVGTP-UHFFFAOYSA-N,OC(=O)c1ccc(C(O)=O)c(Br)c1,-2.1339
1244,B-1245,terpinolene,"InChI=1S/C10H16/c1-8(2)10-6-4-9(3)5-7-10/h4H,5-7H2,1-3H3",MOYAFQVGZZPNRA-UHFFFAOYSA-N,CC(C)=C1CCC(=CC1)C,-4.1566
1245,B-1246,4-pyridinemethanol,"InChI=1S/C6H7NO/c8-5-6-1-3-7-4-2-6/h1-4,8H,5H2",PTMBWNZJOQBTBK-UHFFFAOYSA-N,OCc1ccncc1,0.9621
1246,B-1247,"2-propanol, 1,3-dichloro-, carbamate","InChI=1S/C4H7Cl2NO2/c5-1-3(2-6)9-4(7)8/h3H,1-2H2,(H2,7,8)",JMNCUXPHXKHBPY-UHFFFAOYSA-N,NC(=O)OC(CCl)CCl,-1.3605
1247,B-1248,m-methylbenzyl alcohol,"InChI=1S/C8H10O/c1-7-3-2-4-8(5-7)6-9/h2-5,9H,6H2,1H3",JJCKHVUTVOPLBV-UHFFFAOYSA-N,Cc1cccc(CO)c1,-0.38799999999999996
1248,B-1249,"3,5-dichlorophenoxyacetic acid","InChI=1S/C8H6Cl2O3/c9-5-1-6(10)3-7(2-5)13-4-8(11)12/h1-3H,4H2,(H,11,12)",LXWGIMHMQOCPCR-UHFFFAOYSA-N,OC(=O)COc1cc(Cl)cc(Cl)c1,-2.3617
1249,B-1250,m-chlorophenoxyacetic acid,"InChI=1S/C8H7ClO3/c9-6-2-1-3-7(4-6)12-5-8(10)11/h1-4H,5H2,(H,10,11)",XSBUXVWJQVTYLC-UHFFFAOYSA-N,OC(=O)COc1cccc(Cl)c1,-2.1954
1250,B-1251,stilbene,InChI=1S/C14H12/c1-3-7-13(8-4-1)11-12-14-9-5-2-6-10-14/h1-12H/b12-11+,PJANXHGTPQOBST-VAWYXSNFSA-N,c1ccc(cc1)\C=C\c2ccccc2,-5.7905
1251,B-1252,"1,4-benzenedimethanol","InChI=1S/C8H10O2/c9-5-7-1-2-8(6-10)4-3-7/h1-4,9-10H,5-6H2",BWVAOONFBYYRHY-UHFFFAOYSA-N,OCc1ccc(CO)cc1,-0.3861
1252,B-1253,3-methylhexane,"InChI=1S/C7H16/c1-4-6-7(3)5-2/h7H,4-6H2,1-3H3",VLJXXKKOSFGPHI-UHFFFAOYSA-N,CCCC(C)CC,-4.3063
1253,B-1254,3-methyl-1-pentanol,"InChI=1S/C6H14O/c1-3-6(2)4-5-7/h6-7H,3-5H2,1-2H3",IWTBVKIGCDZRPL-UHFFFAOYSA-N,CCC(C)CCO,-1.3759
1254,B-1255,3-hexanone,"InChI=1S/C6H12O/c1-3-5-6(7)4-2/h3-5H2,1-2H3",PFCHFHIRKBAQGU-UHFFFAOYSA-N,CCCC(=O)CC,-0.8334
1255,B-1256,3-methylheptane,"InChI=1S/C8H18/c1-4-6-7-8(3)5-2/h8H,4-7H2,1-3H3",LAIUFBWHERIJIH-UHFFFAOYSA-N,CCCCC(C)CC,-5.1591
1256,B-1257,4-bromoiodobenzene,InChI=1S/C6H4BrI/c7-5-1-3-6(8)4-2-5/h1-4H,UCCUXODGPMAHRL-UHFFFAOYSA-N,Brc1ccc(I)cc1,-4.5601
1257,B-1258,"1,4-dimethylcyclohexane","InChI=1S/C8H16/c1-7-3-5-8(2)6-4-7/h7-8H,3-6H2,1-2H3",QRMPKOFEUHIBNM-UHFFFAOYSA-N,CC1CCC(C)CC1,-4.4657
1258,B-1259,n-butyl propionate,"InChI=1S/C7H14O2/c1-3-5-6-9-7(8)4-2/h3-6H2,1-2H3",BTMVHUNTONAYDX-UHFFFAOYSA-N,CCCCOC(=O)CC,-1.9385
1259,B-1260,"1,2-diiodoethene (cis)",InChI=1S/C2H2I2/c3-1-2-4/h1-2H/b2-1-,CVOGMKGEVNGRSK-UPHRSURJSA-N,I\C=C/I,-2.7813
1260,B-1261,"1,2-diiodoethene (trans)",InChI=1S/C2H2I2/c3-1-2-4/h1-2H/b2-1+,CVOGMKGEVNGRSK-OWOJBTEDSA-N,I\C=C\I,-3.2767
1261,B-1262,potassium formate,"InChI=1S/CH2O2.K/c2-1-3;/h1H,(H,2,3);/q;+1/p-1",WFIZEGIEIOHZCP-UHFFFAOYSA-M,[K+].[O-]C=O,0.9288
1262,B-1263,"2,2-dimethylpentane","InChI=1S/C7H16/c1-5-6-7(2,3)4/h5-6H2,1-4H3",CXOWYJMDMMMMJO-UHFFFAOYSA-N,CCCC(C)(C)C,-4.3575
1263,B-1264,2-methyl-2-pentanol,"InChI=1S/C6H14O/c1-4-5-6(2,3)7/h7H,4-5H2,1-3H3",WFRBDWRZVBPBDO-UHFFFAOYSA-N,CCCC(C)(C)O,-0.4988
1264,B-1265,bethanechol chloride,"InChI=1S/C7H16N2O2.ClH/c1-6(11-7(8)10)5-9(2,3)4;/h6H,5H2,1-4H3,(H-,8,10);1H",XXRMYXBSBOVVBH-UHFFFAOYSA-N,[Cl-].CC(C[N+](C)(C)C)OC(N)=O,0.5021
1265,B-1266,"2,2-dimethylhexane","InChI=1S/C8H18/c1-5-6-7-8(2,3)4/h5-7H2,1-4H3",FLTJDUOFAQWHDF-UHFFFAOYSA-N,CCCCC(C)(C)C,-5.7568
1266,B-1267,3-methyl-1-butanal,"InChI=1S/C5H10O/c1-5(2)3-4-6/h4-5H,3H2,1-2H3",YGHRJJRRZDOVPD-UHFFFAOYSA-N,CC(C)CC=O,-0.7891
1267,B-1268,dicyanodiamidine sulfate,"InChI=1S/2C2H6N4O.H2O4S/c2*3-1(4)6-2(5)7;1-5(2,3)4/h2*(H6,3,4,5,6,7);(H2,1,2,3,4)",IATXFPUBPMZBPH-UHFFFAOYSA-N,NC(N)=NC(N)=O.NC(N)=NC(N)=O.O[S](O)(=O)=O,-0.7814
1268,B-1269,3-methylcyclohexanone,"InChI=1S/C7H12O/c1-6-3-2-4-7(8)5-6/h6H,2-5H2,1H3",UJBOOUHRTQVGRU-UHFFFAOYSA-N,CC1CCCC(=O)C1,-1.8738
1269,B-1270,1-methylcyclohexene,"InChI=1S/C7H12/c1-7-5-3-2-4-6-7/h5H,2-4,6H2,1H3",CTMHWPIWNRWQEG-UHFFFAOYSA-N,CC1=CCCCC1,-3.2671
1270,B-1271,2-methylhexane,"InChI=1S/C7H16/c1-4-5-6-7(2)3/h7H,4-6H2,1-3H3",GXDHCNNESPLIKD-UHFFFAOYSA-N,CCCCC(C)C,-4.5961
1271,B-1272,allyl acetate,"InChI=1S/C5H8O2/c1-3-4-7-5(2)6/h3H,1,4H2,2H3",FWZUNOYOVVKUNF-UHFFFAOYSA-N,CC(=O)OCC=C,-0.5534
1272,B-1273,1-chloro-2-butene,"InChI=1S/C4H7Cl/c1-2-3-4-5/h2-3H,4H2,1H3/b3-2+",YTKRILODNOEEPX-NSCUHMNNSA-N,C/C=C/CCl,-1.9569
1273,B-1274,2-heptene,"InChI=1S/C7H14/c1-3-5-7-6-4-2/h3,5H,4,6-7H2,1-2H3/b5-3+",OTTZHAVKAVGASB-HWKANZROSA-N,CCCC\C=C\C,-3.8160000000000003
1274,B-1275,n-butylformate,"InChI=1S/C5H10O2/c1-2-3-4-7-5-6/h5H,2-4H2,1H3",NMJJFJNHVMGPGM-UHFFFAOYSA-N,CCCCOC=O,-1.1307
1275,B-1276,octadecane,"InChI=1S/C18H38/c1-3-5-7-9-11-13-15-17-18-16-14-12-10-8-6-4-2/h3-18H2,1-2H3",RZJRJXONCZWCBN-UHFFFAOYSA-N,CCCCCCCCCCCCCCCCCC,-7.6275
1276,B-1277,chlorofluoromethane,InChI=1S/CH2ClF/c2-1-3/h1H2,XWCDCDSDNJVCLO-UHFFFAOYSA-N,FCCl,-0.8202
1277,B-1278,dimethyl selenide,InChI=1S/C2H6Se/c1-3-2/h1-2H3,RVIXKDRPFPUUOO-UHFFFAOYSA-N,C[Se]C,-0.6502
1278,B-1279,"butane, 2-chloro-2-methyl-","InChI=1S/C5H11Cl/c1-4-5(2,3)6/h4H2,1-3H3",CRNIHJHMEQZAAS-UHFFFAOYSA-N,CCC(C)(C)Cl,-2.5106
1279,B-1280,"acetamide, 2,2,2-tribromo-","InChI=1S/C2H2Br3NO/c3-2(4,5)1(6)7/h(H2,6,7)",ORCCSQMJUGMAQU-UHFFFAOYSA-N,NC(=O)C(Br)(Br)Br,-1.2668
1280,B-1281,"2,3-dimethyl-2-butanol","InChI=1S/C6H14O/c1-5(2)6(3,4)7/h5,7H,1-4H3",IKECULIHBUCAKR-UHFFFAOYSA-N,CC(C)C(C)(C)O,-0.3708
1281,B-1282,trichloroacetamide,"InChI=1S/C2H2Cl3NO/c3-2(4,5)1(6)7/h(H2,6,7)",UPQQXPKAYZYUKO-UHFFFAOYSA-N,NC(=O)C(Cl)(Cl)Cl,-1.0966
1282,B-1283,"1,1-dichloro-1-nitroethane","InChI=1S/C2H3Cl2NO2/c1-2(3,4)5(6)7/h1H3",OQOGEOLRYAOSKO-UHFFFAOYSA-N,CC(Cl)(Cl)[N+]([O-])=O,-1.7603
1283,B-1284,"2,3-dimethyl-3-pentanol","InChI=1S/C7H16O/c1-5-7(4,8)6(2)3/h6,8H,5H2,1-4H3",RFZHJHSNHYIRNE-UHFFFAOYSA-N,CCC(C)(O)C(C)C,-0.8504
1284,B-1285,"1,1-dichloro-1-nitropropane","InChI=1S/C3H5Cl2NO2/c1-2-3(4,5)6(7)8/h2H2,1H3",DNYOTMDPSXBJRJ-UHFFFAOYSA-N,CCC(Cl)(Cl)[N+]([O-])=O,-1.4996
1285,B-1286,"2-ethyl-2-nitro-1,3-propanediol","InChI=1S/C5H11NO4/c1-2-5(3-7,4-8)6(9)10/h7-8H,2-4H2,1H3",YADISKICBOYXFS-UHFFFAOYSA-N,CCC(CO)(CO)[N+]([O-])=O,0.8264
1286,B-1287,"3-hydroxy-2,2-dimethylpropanal","InChI=1S/C5H10O2/c1-5(2,3-6)4-7/h3,7H,4H2,1-2H3",JJMOMMLADQPZNY-UHFFFAOYSA-N,CC(C)(CO)C=O,-0.3279
1287,B-1288,"2-propanol, 1,3-dichloro-2-methyl-","InChI=1S/C4H8Cl2O/c1-4(7,2-5)3-6/h7H,2-3H2,1H3",UZHWBXUQTDSMGJ-UHFFFAOYSA-N,CC(O)(CCl)CCl,-0.1822
1288,B-1289,3-ethyl-3-pentanol,"InChI=1S/C7H16O/c1-4-7(8,5-2)6-3/h8H,4-6H2,1-3H3",XKIRHOWVQWCYBT-UHFFFAOYSA-N,CCC(O)(CC)CC,-0.8399
1289,B-1290,"1,3-propanediol, 2,2-bis (acetyloxy)methyl -, di","InChI=1S/C13H20O8/c1-9(14)18-5-13(6-19-10(2)15,7-20-11(3)16)8-21-12(4)17/h5-8H2,1-4H3",OUHCZCFQVONTOC-UHFFFAOYSA-N,CC(=O)OCC(COC(C)=O)(COC(C)=O)COC(C)=O,-1.5686
1290,B-1291,3-methyl-3-hexanol,"InChI=1S/C7H16O/c1-4-6-7(3,8)5-2/h8H,4-6H2,1-3H3",KYWJZCSJMOILIZ-UHFFFAOYSA-N,CCCC(C)(O)CC,-0.9897
1291,B-1292,"4-heptanol, 4-methyl-","InChI=1S/C8H18O/c1-4-6-8(3,9)7-5-2/h9H,4-7H2,1-3H3",IQXKGRKRIRMQCQ-UHFFFAOYSA-N,CCCC(C)(O)CCC,-1.5867
1292,B-1293,3-methyl-3-heptanol,"InChI=1S/C8H18O/c1-4-6-7-8(3,9)5-2/h9H,4-7H2,1-3H3",PQOSNJHBSNZITJ-UHFFFAOYSA-N,CCCCC(C)(O)CC,-1.6028
1293,B-1294,"oxirane, 2-(chloromethyl)-2-methyl-","InChI=1S/C4H7ClO/c1-4(2-5)3-6-4/h2-3H2,1H3",VVHFXJOCUKBZFS-UHFFFAOYSA-N,CC1(CCl)CO1,-0.5504
1294,B-1295,"1,2-dibromo-1-chloroethane","InChI=1S/C2H3Br2Cl/c3-1-2(4)5/h2H,1H2",DVTKTUMRXCKEEG-UHFFFAOYSA-N,ClC(Br)CBr,-2.5546
1295,B-1296,"urea, methyl-","InChI=1S/C2H6N2O/c1-4-2(3)5/h1H3,(H3,3,4,5)",XGEGHDBEHXKFPX-UHFFFAOYSA-N,CNC(N)=O,1.1303
1296,B-1297,methyl isopropyl ether,"InChI=1S/C4H10O/c1-4(2)5-3/h4H,1-3H3",RMGHERXMTMUMMV-UHFFFAOYSA-N,COC(C)C,-0.057
1297,B-1298,"acetamide, 2,2-dibromo-","InChI=1S/C2H3Br2NO/c3-1(4)2(5)6/h1H,(H2,5,6)",YUIKPESWSMJSMP-UHFFFAOYSA-N,NC(=O)C(Br)Br,-1.0574
1298,B-1299,"1,1,2-trichloropropane","InChI=1S/C3H5Cl3/c1-2(4)3(5)6/h2-3H,1H3",GRSQYISVQKPZCW-UHFFFAOYSA-N,CC(Cl)C(Cl)Cl,-1.8898
1299,B-1300,2-chloropropionic acid,"InChI=1S/C3H5ClO2/c1-2(4)3(5)6/h2H,1H3,(H,5,6)",GAWAYYRQGQZKCR-UHFFFAOYSA-N,CC(Cl)C(O)=O,0.9645
1300,B-1301,a-hydroxypropionic acid,"InChI=1S/C3H6O3/c1-2(4)3(5)6/h2,4H,1H3,(H,5,6)",JVTAAEKCZFNVCJ-UHFFFAOYSA-N,CC(O)C(O)=O,1.0454
1301,B-1302,"ethane, 1-chloro-1-nitro-","InChI=1S/C2H4ClNO2/c1-2(3)4(5)6/h2H,1H3",LPIWIOBGUAPNQW-UHFFFAOYSA-N,CC(Cl)[N+]([O-])=O,-1.4374
1302,B-1303,"benzenesulfonic acid, 4-methyl-, 2-methylphenyl","InChI=1S/C14H14O3S/c1-11-7-9-13(10-8-11)18(15,16)17-14-6-4-3-5-12(14)2/h3-10H,1-2H3",WBKWVLAHWVFXKM-UHFFFAOYSA-N,Cc1ccc(cc1)[S](=O)(=O)Oc2ccccc2C,-3.9417
1303,B-1304,"ethane, 1,1,1-trichloro-2,2-diethoxy-","InChI=1S/C6H11Cl3O2/c1-3-10-5(11-4-2)6(7,8)9/h5H,3-4H2,1-2H3",CGCJBAIEQANINV-UHFFFAOYSA-N,CCOC(OCC)C(Cl)(Cl)Cl,-1.6464
1304,B-1305,1-chloro-1-nitropropane,"InChI=1S/C3H6ClNO2/c1-2-3(4)5(6)7/h3H,2H2,1H3",XEKUXTMJEFPWCG-UHFFFAOYSA-N,CCC(Cl)[N+]([O-])=O,-1.1887
1305,B-1306,"2,4-dimethyl-3-pentanol","InChI=1S/C7H16O/c1-5(2)7(8)6(3)4/h5-8H,1-4H3",BAYAKMPRFGNNFW-UHFFFAOYSA-N,CC(C)C(O)C(C)C,-1.2201
1306,B-1307,ethylmalonic acid,"InChI=1S/C5H8O4/c1-2-3(4(6)7)5(8)9/h3H,2H2,1H3,(H,6,7)(H,8,9)",UKFXDFUAPNAMPJ-UHFFFAOYSA-N,CCC(C(O)=O)C(O)=O,0.7315
1307,B-1308,"acenaphthylene, 1,2-dihydro-5-nitro-","InChI=1S/C12H9NO2/c14-13(15)11-7-6-9-5-4-8-2-1-3-10(11)12(8)9/h1-3,6-7H,4-5H2",CUARLQDWYSRQDF-UHFFFAOYSA-N,[O-][N+](=O)c1ccc2CCc3cccc1c23,-5.3403
1308,B-1309,"benzoic acid, 2,6-dibromo-3,4,5-trihydroxy-","InChI=1S/C7H4Br2O5/c8-2-1(7(13)14)3(9)5(11)6(12)4(2)10/h10-12H,(H,13,14)",RZMMKKHHNDGXPD-UHFFFAOYSA-N,OC(=O)c1c(Br)c(O)c(O)c(O)c1Br,-0.4188
1309,B-1310,"3-methyl-2,4,6-trinitrophenol","InChI=1S/C7H5N3O7/c1-3-4(8(12)13)2-5(9(14)15)7(11)6(3)10(16)17/h2,11H,1H3",YYGJRRYSYLLCQH-UHFFFAOYSA-N,Cc1c(cc(c(O)c1[N+]([O-])=O)[N+]([O-])=O)[N+]([O-])=O,-2.0434
1310,B-1311,proxyphylline,"InChI=1S/C10H14N4O3/c1-6(15)4-14-5-11-8-7(14)9(16)13(3)10(17)12(8)2/h5-6,15H,4H2,1-3H3",KYHQZNGJUGFTGR-UHFFFAOYSA-N,CC(O)Cn1cnc2N(C)C(=O)N(C)C(=O)c12,0.623
1311,B-1312,3-nitrophthalic acid,"InChI=1S/C8H5NO6/c10-7(11)4-2-1-3-5(9(14)15)6(4)8(12)13/h1-3H,(H,10,11)(H,12,13)",KFIRODWJCYBBHY-UHFFFAOYSA-N,OC(=O)c1cccc(c1C(O)=O)[N+]([O-])=O,-1.0214
1312,B-1313,rosolic acid,"InChI=1S/C19H14O3/c20-16-7-1-13(2-8-16)19(14-3-9-17(21)10-4-14)15-5-11-18(22)12-6-15/h1-12,20-21H",FYEHYMARPSSOBO-UHFFFAOYSA-N,Oc1ccc(cc1)C(c2ccc(O)cc2)=C3C=CC(=O)C=C3,-2.3837
1313,B-1314,"benzoic acid, 2-benzoyl-, ethyl ester","InChI=1S/C16H14O3/c1-2-19-16(18)14-11-7-6-10-13(14)15(17)12-8-4-3-5-9-12/h3-11H,2H2,1H3",CGWFVEFHQWJOKI-UHFFFAOYSA-N,CCOC(=O)c1ccccc1C(=O)c2ccccc2,-3.4053
1314,B-1315,2-hydroxyanthraquinone,"InChI=1S/C14H8O3/c15-8-5-6-11-12(7-8)14(17)10-4-2-1-3-9(10)13(11)16/h1-7,15H",GCDBEYOJCZLKMC-UHFFFAOYSA-N,Oc1ccc2C(=O)c3ccccc3C(=O)c2c1,-5.3093
1315,B-1316,"benzoic acid, 2-benzoyl-, methyl ester","InChI=1S/C15H12O3/c1-18-15(17)13-10-6-5-9-12(13)14(16)11-7-3-2-4-8-11/h2-10H,1H3",NQSMEZJWJJVYOI-UHFFFAOYSA-N,COC(=O)c1ccccc1C(=O)c2ccccc2,-3.4776
1316,B-1317,"2,4(1h,3h)-quinazolinedione, 6,8-dinitro-","InChI=1S/C8H4N4O6/c13-7-4-1-3(11(15)16)2-5(12(17)18)6(4)9-8(14)10-7/h1-2H,(H2,9,10,13,14)",COWHVSLHGUONGN-UHFFFAOYSA-N,[O-][N+](=O)c1cc2C(=O)NC(=O)Nc2c(c1)[N+]([O-])=O,-3.2057
1317,B-1318,1-methyl-2(h)-quinolinone,"InChI=1S/C10H9NO/c1-11-9-5-3-2-4-8(9)6-7-10(11)12/h2-7H,1H3",QYEMNJMSULGQRD-UHFFFAOYSA-N,CN1C(=O)C=Cc2ccccc12,-1.0466
1318,B-1319,4-hydroxy-2-methylquinoline,"InChI=1S/C10H9NO/c1-7-6-10(12)8-4-2-3-5-9(8)11-7/h2-6H,1H3,(H,11,12)",NWINIEGDLHHNLH-UHFFFAOYSA-N,CC1=CC(=O)c2ccccc2N1,-1.2019
1319,B-1320,"1,2,3-tribromobenzene",InChI=1S/C6H3Br3/c7-4-2-1-3-5(8)6(4)9/h1-3H,GMVJKSNPLYBFSO-UHFFFAOYSA-N,Brc1cccc(Br)c1Br,-5.0402
1320,B-1321,"1,3-benzenediol, 2-methyl-","InChI=1S/C7H8O2/c1-5-6(8)3-2-4-7(5)9/h2-4,8-9H,1H3",ZTMADXFOCUXMJE-UHFFFAOYSA-N,Cc1c(O)cccc1O,0.3264
1321,B-1322,"altraric acid, d-","InChI=1S/C6H10O8/c7-1(3(9)5(11)12)2(8)4(10)6(13)14/h1-4,7-10H,(H,11,12)(H,13,14)/t1-,2+,3-,4-/m0/s1",DSLZVSRJTYRBFB-YCAKELIYSA-N,O[C@H]([C@H](O)[C@H](O)C(O)=O)[C@H](O)C(O)=O,0.1999
1322,B-1323,"1,2,3,4,5,6-hexachlorocyclohexane",InChI=1S/C6H6Cl6/c7-1-2(8)4(10)6(12)5(11)3(1)9/h1-6H,JLYXXMFPNIAWKQ-UHFFFAOYSA-N,ClC1C(Cl)C(Cl)C(Cl)C(Cl)C1Cl,-4.5605
1323,B-1324,"propanedioic acid, oxo-, diethyl ester","InChI=1S/C7H10O5/c1-3-11-6(9)5(8)7(10)12-4-2/h3-4H2,1-2H3",DBKKFIIYQGGHJO-UHFFFAOYSA-N,CCOC(=O)C(=O)C(=O)OCC,0.5117
1324,B-1325,2-nitro-1-butanol,"InChI=1S/C4H9NO3/c1-2-4(3-6)5(7)8/h4,6H,2-3H2,1H3",MHIHRIPETCJEMQ-UHFFFAOYSA-N,CCC(CO)[N+]([O-])=O,-0.3436
1325,B-1326,"2,4-dichloro-6-nitrophenol","InChI=1S/C6H3Cl2NO3/c7-3-1-4(8)6(10)5(2-3)9(11)12/h1-2,10H",LYPMXMBQPXPNIQ-UHFFFAOYSA-N,Oc1c(Cl)cc(Cl)cc1[N+]([O-])=O,-4.0876
1326,B-1327,"benzoic acid, 3-formyl-2-hydroxy-","InChI=1S/C8H6O4/c9-4-5-2-1-3-6(7(5)10)8(11)12/h1-4,10H,(H,11,12)",YOEUNKPREOJHBW-UHFFFAOYSA-N,OC(=O)c1cccc(C=O)c1O,-2.4423
1327,B-1328,"2,4-dinitrobenzoic acid","InChI=1S/C7H4N2O6/c10-7(11)5-2-1-4(8(12)13)3-6(5)9(14)15/h1-3H,(H,10,11)",ZIIGSRYPZWDGBT-UHFFFAOYSA-N,OC(=O)c1ccc(cc1[N+]([O-])=O)[N+]([O-])=O,-1.0665
1328,B-1329,1-methylanthracene,"InChI=1S/C15H12/c1-11-5-4-8-14-9-12-6-2-3-7-13(12)10-15(11)14/h2-10H,1H3",KZNJSFHJUQDYHE-UHFFFAOYSA-N,Cc1cccc2cc3ccccc3cc12,-5.8541
1329,B-1330,"1(3h)-isobenzofuranone, 6-nitro-","InChI=1S/C8H5NO4/c10-8-7-3-6(9(11)12)2-1-5(7)4-13-8/h1-3H,4H2",RNWGZXAHUPFXLL-UHFFFAOYSA-N,[O-][N+](=O)c1ccc2COC(=O)c2c1,-2.6511
1330,B-1331,"benzeneacetic acid, .alpha.-hydroxy-, (r)-","InChI=1S/C8H8O3/c9-7(8(10)11)6-4-2-1-3-5-6/h1-5,7,9H,(H,10,11)/t7-/m1/s1",IWYDHOAUDWTVEP-SSDOTTSWSA-N,O[C@@H](C(O)=O)c1ccccc1,-0.1417
1331,B-1332,dl-mandelic acid,"InChI=1S/C8H8O3/c9-7(8(10)11)6-4-2-1-3-5-6/h1-5,7,9H,(H,10,11)",IWYDHOAUDWTVEP-UHFFFAOYSA-N,OC(C(O)=O)c1ccccc1,0.0545
1332,B-1333,"1,2-benzenedimethanol","InChI=1S/C8H10O2/c9-5-7-3-1-2-4-8(7)6-10/h1-4,9-10H,5-6H2",XMUZQOKACOLCSS-UHFFFAOYSA-N,OCc1ccccc1CO,0.0569
1333,B-1334,"benzoic acid, 2-(hydroxymethyl)-","InChI=1S/C8H8O3/c9-5-6-3-1-2-4-7(6)8(10)11/h1-4,9H,5H2,(H,10,11)",MGMNPSAERQZUIM-UHFFFAOYSA-N,OCc1ccccc1C(O)=O,-1.5508
1334,B-1335,2-ethylnitrobenzene,"InChI=1S/C8H9NO2/c1-2-7-5-3-4-6-8(7)9(10)11/h3-6H,2H2,1H3",PXWYZLWEKCMTEZ-UHFFFAOYSA-N,CCc1ccccc1[N+]([O-])=O,-2.7993
1335,B-1336,2-nitrobenzyl alcohol,"InChI=1S/C7H7NO3/c9-5-6-3-1-2-4-7(6)8(10)11/h1-4,9H,5H2",BWRBVBFLFQKBPT-UHFFFAOYSA-N,OCc1ccccc1[N+]([O-])=O,-1.4861
1336,B-1337,2-aminoanthracene,"InChI=1S/C14H11N/c15-14-6-5-12-7-10-3-1-2-4-11(10)8-13(12)9-14/h1-9H,15H2",YCSBALJAGZKWFF-UHFFFAOYSA-N,Nc1ccc2cc3ccccc3cc2c1,-5.1722
1337,B-1338,"nicotinic acid, ethyl ester","InChI=1S/C8H9NO2/c1-2-11-8(10)7-4-3-5-9-6-7/h3-6H,2H2,1H3",XBLVHTDFJBKJLG-UHFFFAOYSA-N,CCOC(=O)c1cccnc1,-0.4313
1338,B-1339,2-chloroiodobenzene,InChI=1S/C6H4ClI/c7-5-3-1-2-4-6(5)8/h1-4H,MPEOPBCQHNWNFB-UHFFFAOYSA-N,Clc1ccccc1I,-3.54
1339,B-1340,"1,2-diiodobenzene",InChI=1S/C6H4I2/c7-5-3-1-2-4-6(5)8/h1-4H,BBOLNFYSRZVALD-UHFFFAOYSA-N,Ic1ccccc1I,-4.2399
1340,B-1341,ethyl n-methylnitrosocarbamate,"InChI=1S/C4H8N2O3/c1-3-9-4(7)6(2)5-8/h3H2,1-2H3",CAUBWLYZCDDYEF-UHFFFAOYSA-N,CCOC(=O)N(C)N=O,-0.5528
1341,B-1342,"1,2,4-tribromobenzene",InChI=1S/C6H3Br3/c7-4-1-2-5(8)6(9)3-4/h1-3H,FWAJPSIPOULHHH-UHFFFAOYSA-N,Brc1ccc(Br)c(Br)c1,-4.808
1342,B-1343,dl-norleucine,"InChI=1S/C6H13NO2/c1-2-3-4-5(7)6(8)9/h5H,2-4,7H2,1H3,(H,8,9)",LRQKBLKVPFOOQJ-UHFFFAOYSA-N,CCCCC(N)C(O)=O,-1.0453
1343,B-1344,3-chloropentane,"InChI=1S/C5H11Cl/c1-3-5(6)4-2/h5H,3-4H2,1-2H3",CXQSCYIVCSCSES-UHFFFAOYSA-N,CCC(Cl)CC,-2.6307
1344,B-1345,1-penten-3-ol,"InChI=1S/C5H10O/c1-3-5(6)4-2/h3,5-6H,1,4H2,2H3",VHVMXWZXFBOANQ-UHFFFAOYSA-N,CCC(O)C=C,0.0193
1345,B-1346,pyrrolidone,"InChI=1S/C4H7NO/c6-4-2-1-3-5-4/h1-3H2,(H,5,6)",HNJBEVLQSNELDL-UHFFFAOYSA-N,O=C1CCCN1,1.07
1346,B-1347,"1h-imidazole, 1-methyl-","InChI=1S/C4H6N2/c1-6-3-2-5-4-6/h2-4H,1H3",MCTWTZJPVLRJOU-UHFFFAOYSA-N,Cn1ccnc1,1.0856
1347,B-1348,propylpropanedioic acid,"InChI=1S/C6H10O4/c1-2-3-4(5(7)8)6(9)10/h4H,2-3H2,1H3,(H,7,8)(H,9,10)",VQDJODAWOFNASI-UHFFFAOYSA-N,CCCC(C(O)=O)C(O)=O,0.6803
1348,B-1349,"1,3-benzenediol, 4,6-dinitro-","InChI=1S/C6H4N2O6/c9-5-2-6(10)4(8(13)14)1-3(5)7(11)12/h1-2,9-10H",MBXIRNHACKAGPA-UHFFFAOYSA-N,Oc1cc(O)c(cc1[N+]([O-])=O)[N+]([O-])=O,-3.4086