,ID,Name,InChI,InChIKey,SMILES,Solubility
5611,C-962,n1-(2-nitrophenyl)-2-methylsulfanilamide;  2-nitro-1-(4-amino-2-methylphenylsulfonamido)benzene,"InChI=1S/C13H13N3O4S/c1-9-8-10(14)6-7-13(9)21(19,20)15-11-4-2-3-5-12(11)16(17)18/h2-8,15H,14H2,1H3",HZKCDBKRNMDOJB-UHFFFAOYSA-N,CC1=C(C=CC(=C1)N)[S](=O)(=O)NC2=C(C=CC=C2)[N+]([O-])=O,-4.51
5612,C-963,"1,2,3,7-tetrachlorodibenzodioxin",InChI=1S/C12H4Cl4O2/c13-5-1-2-7-8(3-5)17-9-4-6(14)10(15)11(16)12(9)18-7/h1-4H,SKGXYFVQZVPEFP-UHFFFAOYSA-N,ClC1=CC2=C(OC3=C(O2)C=C(Cl)C(=C3Cl)Cl)C=C1,-8.89
5613,C-964,"7,12-dimethylbenz[a]anthracene","InChI=1S/C20H16/c1-13-16-8-5-6-9-17(16)14(2)20-18(13)12-11-15-7-3-4-10-19(15)20/h3-12H,1-2H3",ARSRBNBHOADGJU-UHFFFAOYSA-N,CC1=C2C=CC3=C(C=CC=C3)C2=C(C)C4=C1C=CC=C4,-6.78
5614,C-965,furosemide,"InChI=1S/C12H11ClN2O5S/c13-9-5-10(15-6-7-2-1-3-20-7)8(12(16)17)4-11(9)21(14,18)19/h1-5,15H,6H2,(H,16,17)(H2,14,18,19)",ZZUFCTLCJUWOSV-UHFFFAOYSA-N,N[S](=O)(=O)C1=CC(=C(NCC2=CC=CO2)C=C1Cl)C(O)=O,-4.44
5615,C-966,"szi-121;  3-(2-chlorophenyl)-6-(2,6-difluorophenyl)-1,2,4,5-tetrazine",InChI=1S/C14H7ClF2N4/c15-9-5-2-1-4-8(9)13-18-20-14(21-19-13)12-10(16)6-3-7-11(12)17/h1-7H,SWBHWUYHHJCADA-UHFFFAOYSA-N,FC1=C(C(=CC=C1)F)C2=NN=C(N=N2)C3=C(Cl)C=CC=C3,-6.12
5616,C-967,clonazepam,"InChI=1S/C15H10ClN3O3/c16-12-4-2-1-3-10(12)15-11-7-9(19(21)22)5-6-13(11)18-14(20)8-17-15/h1-7H,8H2,(H,18,20)",DGBIGWXXNGSACT-UHFFFAOYSA-N,[O-][N+](=O)C1=CC2=C(NC(=O)CN=C2C3=CC=CC=C3Cl)C=C1,-3.5
5617,C-968,cinnarizine;  stugeron,"InChI=1S/C26H28N2/c1-4-11-23(12-5-1)13-10-18-27-19-21-28(22-20-27)26(24-14-6-2-7-15-24)25-16-8-3-9-17-25/h1-17,26H,18-22H2/b13-10+",DERZBLKQOCDDDZ-JLHYYAGUSA-N,C1CN(CCN1C\C=C\C2=CC=CC=C2)C(C3=CC=CC=C3)C4=CC=CC=C4,-4.2
5618,C-969,"n-(3-methyl-5-propylisoxazol-4-yl)-2-hydroxy-1,4-naphthoquinone-4-imine","InChI=1S/C17H16N2O3/c1-3-6-15-16(10(2)19-22-15)18-13-9-14(20)17(21)12-8-5-4-7-11(12)13/h4-5,7-9,20H,3,6H2,1-2H3",JSAKUYFJPZQXBF-UHFFFAOYSA-N,CCCC1=C(N=C2C=C(O)C(=O)C3=C2C=CC=C3)C(=NO1)C,-3.7
5619,C-970,3-(butanoyloxymethyl)phenytoin,"InChI=1S/C20H20N2O4/c1-2-9-17(23)26-14-22-18(24)20(21-19(22)25,15-10-5-3-6-11-15)16-12-7-4-8-13-16/h3-8,10-13H,2,9,14H2,1H3,(H,21,25)",UPQWMVAELITTGQ-UHFFFAOYSA-N,CCCC(=O)OCN1C(=O)NC(C1=O)(C2=CC=CC=C2)C3=CC=CC=C3,-5.07
5620,C-971,"n1-(2,4,5-trichlorophenyl)sulfanilamide;  1-sulfa-2,4,5-trichlorobenzene","InChI=1S/C12H9Cl3N2O2S/c13-9-5-11(15)12(6-10(9)14)17-20(18,19)8-3-1-7(16)2-4-8/h1-6,17H,16H2",NAEQJWFRAJVALC-UHFFFAOYSA-N,NC1=CC=C(C=C1)[S](=O)(=O)NC2=C(Cl)C=C(Cl)C(=C2)Cl,-4.83
5621,C-972,"1,2,3,4-tetrachlorodibenzodioxin",InChI=1S/C12H4Cl4O2/c13-7-8(14)10(16)12-11(9(7)15)17-5-3-1-2-4-6(5)18-12/h1-4H,DJHHDLMTUOLVHY-UHFFFAOYSA-N,ClC1=C(Cl)C2=C(OC3=C(O2)C=CC=C3)C(=C1Cl)Cl,-8.92
5622,C-973,"n-(2,4-dibromophenyl)benzenesulfonamide","InChI=1S/C12H9Br2NO2S/c13-9-6-7-12(11(14)8-9)15-18(16,17)10-4-2-1-3-5-10/h1-8,15H",KVYZUAZCQPQRPI-UHFFFAOYSA-N,BrC1=CC=C(N[S](=O)(=O)C2=CC=CC=C2)C(=C1)Br,-5.01
5623,C-974,hexachlorophene,"InChI=1S/C13H6Cl6O2/c14-6-2-8(16)12(20)4(10(6)18)1-5-11(19)7(15)3-9(17)13(5)21/h2-3,20-21H,1H2",ACGUYXCXAPNIKK-UHFFFAOYSA-N,OC1=C(CC2=C(O)C(=CC(=C2Cl)Cl)Cl)C(=C(Cl)C=C1Cl)Cl,-3.46
5624,C-975,nuarimol,"InChI=1S/C17H12ClFN2O/c18-16-4-2-1-3-15(16)17(22,13-9-20-11-21-10-13)12-5-7-14(19)8-6-12/h1-11,22H",SAPGTCDSBGMXCD-UHFFFAOYSA-N,OC(C1=CC=C(F)C=C1)(C2=CN=CN=C2)C3=C(Cl)C=CC=C3,-4.08
5625,C-976,chlorothiazide,"InChI=1S/C7H6ClN3O4S2/c8-4-1-5-7(2-6(4)16(9,12)13)17(14,15)11-3-10-5/h1-3H,(H,10,11)(H2,9,12,13)",JBMKAUGHUNFTOL-UHFFFAOYSA-N,N[S](=O)(=O)C1=CC2=C(C=C1Cl)N=CN[S]2(=O)=O,-2.92
5626,C-977,hydrochlorothiazide,"InChI=1S/C7H8ClN3O4S2/c8-4-1-5-7(2-6(4)16(9,12)13)17(14,15)11-3-10-5/h1-2,10-11H,3H2,(H2,9,12,13)",JZUFKLXOESDKRF-UHFFFAOYSA-N,N[S](=O)(=O)C1=CC2=C(NCN[S]2(=O)=O)C=C1Cl,-2.67
5627,C-978,chlorprothixene (form ii),"InChI=1S/C18H18ClNS/c1-20(2)11-5-7-14-15-6-3-4-8-17(15)21-18-10-9-13(19)12-16(14)18/h3-4,6-10,12H,5,11H2,1-2H3/b14-7-",WSPOMRSOLSGNFJ-AUWJEWJLSA-N,CN(C)CC\C=C/1C2=C(SC3=C1C=C(Cl)C=C3)C=CC=C2,-5.87
5628,C-979,"6-hydroxy-6,7-dihydro-5h-2-sulfamoylthieno[3,2-b]thiopyran-4,4-dioxide","InChI=1S/C7H9NO5S3/c8-16(12,13)7-2-6-5(14-7)1-4(9)3-15(6,10)11/h2,4,9H,1,3H2,(H2,8,12,13)",ZGRYQDHDZGJMNF-UHFFFAOYSA-N,N[S](=O)(=O)C1=CC2=C(CC(O)C[S]2(=O)=O)S1,-1.59
5629,C-980,"3-pentanoyloxymethylphenytoin;  5,5-diphenyl-3-pentanoyloxymethylhydantoin","InChI=1S/C21H22N2O4/c1-2-3-14-18(24)27-15-23-19(25)21(22-20(23)26,16-10-6-4-7-11-16)17-12-8-5-9-13-17/h4-13H,2-3,14-15H2,1H3,(H,22,26)",XCEYNQCFXXAOBL-UHFFFAOYSA-N,CCCCC(=O)OCN1C(=O)NC(C1=O)(C2=CC=CC=C2)C3=CC=CC=C3,-4.68
5630,C-981,"5-hydroxy-5,6-dihydro-4h-2-sulfamoylthieno[2,3-b]thiopyran-7,7-dioxide","InChI=1S/C7H9NO5S3/c8-16(12,13)6-2-4-1-5(9)3-15(10,11)7(4)14-6/h2,5,9H,1,3H2,(H2,8,12,13)",APTGDJCKNMNFID-UHFFFAOYSA-N,N[S](=O)(=O)C1=CC2=C(S1)[S](=O)(=O)CC(O)C2,-1.54