,ID,Name,InChI,InChIKey,SMILES,Solubility
1973,B-1974,"benzenebutanoic acid, 4-methoxy--oxo-","InChI=1S/C11H12O4/c1-15-9-4-2-8(3-5-9)10(12)6-7-11(13)14/h2-5H,6-7H2,1H3,(H,13,14)",OMTDIBZSUZNVJK-UHFFFAOYSA-N,COc1ccc(cc1)C(=O)CCC(O)=O,-1.0632
2135,B-2136,"d-glycero-d-gulo-heptopyranoside, phenyl, -","InChI=1S/C13H18O7/c14-6-8(15)12-10(17)9(16)11(18)13(20-12)19-7-4-2-1-3-5-7/h1-5,8-18H,6H2",UWYXADYVSWKWAX-UHFFFAOYSA-N,OCC(O)C1OC(Oc2ccccc2)C(O)C(O)C1O,-1.5537
2485,B-2486,"-d-glucofuranose, 1,2:5,6-bis-o-(1-methylethyli","InChI=1S/C14H22O7/c1-7(15)17-10-9(8-6-16-13(2,3)19-8)18-12-11(10)20-14(4,5)21-12/h8-12H,6H2,1-5H3/t8-,9-,10+,11-,12-/m1/s1",QZKDRLZSJSWQPS-RMPHRYRLSA-N,CC(=O)O[C@H]1[C@H](O[C@@H]2OC(C)(C)O[C@H]12)[C@H]3COC(C)(C)O3,-1.5229
2535,B-2536,"2-cyclopenta[c]pyran-4-carboxylic acid, 1-(-d-g","InChI=1S/C17H26O10/c1-6-9(19)3-7-8(15(23)24-2)5-25-16(11(6)7)27-17-14(22)13(21)12(20)10(4-18)26-17/h5-7,9-14,16-22H,3-4H2,1-2H3/t6-,7+,9-,10+,11+,12+,13-,14+,16-,17-/m0/s1",AMBQHHVBBHTQBF-UOUCRYGSSA-N,COC(=O)C1=CO[C@@H](O[C@@H]2O[C@H](CO)[C@@H](O)[C@H](O)[C@H]2O)[C@@H]3[C@@H](C)[C@@H](O)C[C@H]13,-0.5911
3374,B-3375,"1-naphthalenepropanoic acid, .beta.-amino-, ()","InChI=1S/C13H13NO2/c14-12(8-13(15)16)11-7-3-5-9-4-1-2-6-10(9)11/h1-7,12H,8,14H2,(H,15,16)/t12-/m1/s1",BIOQBKBTOAMMDG-GFCCVEGCSA-N,[NH3+][C@H](CC([O-])=O)c1cccc2ccccc12,-1.5902