,ID,Name,InChI,InChIKey,SMILES,Solubility
3555,B-3556,cyclohexane,InChI=1S/C6H12/c1-2-4-6-5-3-1/h1-6H2,XDTMQSROBMDMFD-UHFFFAOYSA-N,C1CCCCC1,-3.1847
3556,B-3557,octane,"InChI=1S/C8H18/c1-3-5-7-8-6-4-2/h3-8H2,1-2H3",TVMXDCGIABBOFY-UHFFFAOYSA-N,CCCCCCCC,-5.2382
3557,B-3558,dodecane,"InChI=1S/C12H26/c1-3-5-7-9-11-12-10-8-6-4-2/h3-12H2,1-2H3",SNRUBQQJIBEYMU-UHFFFAOYSA-N,CCCCCCCCCCCC,-7.6631
3558,B-3559,n-heptane,"InChI=1S/C7H16/c1-3-5-7-6-4-2/h3-7H2,1-2H3",IMNFDUFMRHMDMM-UHFFFAOYSA-N,CCCCCCC,-4.4694
3559,B-3560,cyclopentane,InChI=1S/C5H10/c1-2-4-5-3-1/h1-5H2,RGSFGYAAUTVSQA-UHFFFAOYSA-N,C1CCCC1,-2.6528
3560,B-3561,cyclooctane,InChI=1S/C8H16/c1-2-4-6-8-7-5-3-1/h1-8H2,WJTCGQSWYFHTAC-UHFFFAOYSA-N,C1CCCCCCC1,-4.1524
3561,B-3562,"2,2-dimethylpropane","InChI=1S/C5H12/c1-5(2,3)4/h1-4H3",CRSOQBOWXPBRES-UHFFFAOYSA-N,CC(C)(C)C,-3.3371
3562,B-3563,benzo(a)pyrene,InChI=1S/C20H12/c1-2-7-17-15(4-1)12-16-9-8-13-5-3-6-14-10-11-18(17)20(16)19(13)14/h1-12H,FMMWHPNWAFZXNH-UHFFFAOYSA-N,c1ccc2c(c1)cc3ccc4cccc5ccc2c3c45,-8.1924
3563,B-3564,"dibenz(a,h)anthracene",InChI=1S/C22H14/c1-3-7-19-15(5-1)9-11-17-14-22-18(13-21(17)19)12-10-16-6-2-4-8-20(16)22/h1-14H,LHRCREOYAASXPZ-UHFFFAOYSA-N,c1ccc2c(c1)ccc3cc4c(ccc5ccccc45)cc23,-8.6679
3564,B-3565,3-methylcholanthrene,"InChI=1S/C21H16/c1-13-6-7-15-12-20-17-5-3-2-4-14(17)8-9-18(20)19-11-10-16(13)21(15)19/h2-9,12H,10-11H2,1H3",PPQNQXQZIWHJRB-UHFFFAOYSA-N,Cc1ccc2cc3c(ccc4ccccc34)c5CCc1c25,-7.9663
3565,B-3566,benz(a)anthracene,InChI=1S/C18H12/c1-2-7-15-12-18-16(11-14(15)6-1)10-9-13-5-3-4-8-17(13)18/h1-12H,DXBHBZVCASKNBY-UHFFFAOYSA-N,c1ccc2cc3c(ccc4ccccc34)cc2c1,-7.3854
3566,B-3567,"7,12-dime-benz(a)anthracene","InChI=1S/C20H16/c1-13-16-8-5-6-9-17(16)14(2)20-18(13)12-11-15-7-3-4-10-19(15)20/h3-12H,1-2H3",ARSRBNBHOADGJU-UHFFFAOYSA-N,Cc1c2ccccc2c(C)c3c4ccccc4ccc13,-7.0109
3567,B-3568,acenaphthene,"InChI=1S/C12H10/c1-3-9-4-2-6-11-8-7-10(5-1)12(9)11/h1-6H,7-8H2",CWRYPZZKDGJXCA-UHFFFAOYSA-N,C1Cc2cccc3cccc1c23,-4.5969999999999995
3568,B-3569,phenanthrene,InChI=1S/C14H10/c1-3-7-13-11(5-1)9-10-12-6-2-4-8-14(12)13/h1-10H,YNPNZTXNASCQKK-UHFFFAOYSA-N,c1ccc2c(c1)ccc3ccccc23,-5.1903
3569,B-3570,9h-fluorene,"InChI=1S/C13H10/c1-3-7-12-10(5-1)9-11-6-2-4-8-13(11)12/h1-8H,9H2",NIHNNTQXNPWCJQ-UHFFFAOYSA-N,C1c2ccccc2c3ccccc13,-4.9442
3570,B-3571,carbazole,"InChI=1S/C12H9N/c1-3-7-11-9(5-1)10-6-2-4-8-12(10)13-11/h1-8,13H",UJOBWOGCFQCDNV-UHFFFAOYSA-N,[nH]1c2ccccc2c3ccccc13,-4.968
3571,B-3572,tetracene,InChI=1S/C18H12/c1-2-6-14-10-18-12-16-8-4-3-7-15(16)11-17(18)9-13(14)5-1/h1-12H,IFLREYGFSNHWGE-UHFFFAOYSA-N,c1ccc2cc3cc4ccccc4cc3cc2c1,-8.1795
3572,B-3573,anthracene,InChI=1S/C14H10/c1-2-6-12-10-14-8-4-3-7-13(14)9-11(12)5-1/h1-10H,MWPLVEDNUUSJAV-UHFFFAOYSA-N,c1ccc2cc3ccccc3cc2c1,-6.6135
3573,B-3574,pyrene,InChI=1S/C16H10/c1-3-11-7-9-13-5-2-6-14-10-8-12(4-1)15(11)16(13)14/h1-10H,BBEAQIROQSPTKN-UHFFFAOYSA-N,c1cc2ccc3cccc4ccc(c1)c2c34,-6.1756
3574,B-3575,dibenzothiophene,InChI=1S/C12H8S/c1-3-7-11-9(5-1)10-6-2-4-8-12(10)13-11/h1-8H,IYYZUPMFVPLQIF-UHFFFAOYSA-N,s1c2ccccc2c3ccccc13,-5.0981
3575,B-3576,benzo[ghi]perylene,InChI=1S/C22H12/c1-3-13-7-9-15-11-12-16-10-8-14-4-2-6-18-17(5-1)19(13)21(15)22(16)20(14)18/h1-12H,GYFAGKUZYNFMBN-UHFFFAOYSA-N,c1cc2ccc3ccc4ccc5cccc6c(c1)c2c3c4c56,-9.0265
3576,B-3577,perylene,InChI=1S/C20H12/c1-5-13-6-2-11-17-18-12-4-8-14-7-3-10-16(20(14)18)15(9-1)19(13)17/h1-12H,CSHWQDPOILHKBI-UHFFFAOYSA-N,c1cc2cccc3c4cccc5cccc(c(c1)c23)c45,-8.7999
3577,B-3578,fluoranthene,InChI=1S/C16H10/c1-2-8-13-12(7-1)14-9-3-5-11-6-4-10-15(13)16(11)14/h1-10H,GVEPBJHOBDJJJI-UHFFFAOYSA-N,c1ccc2c(c1)c3cccc4cccc2c34,-5.992000000000001
3578,B-3579,acenaphthylene,InChI=1S/C12H8/c1-3-9-4-2-6-11-8-7-10(5-1)12(9)11/h1-8H,HXGDTGSAIMULJN-UHFFFAOYSA-N,c1cc2cccc3C=Cc(c1)c23,-3.9756
3579,B-3580,"dibenzo[a,c]anthracene",InChI=1S/C22H14/c1-2-8-16-14-22-20-12-6-4-10-18(20)17-9-3-5-11-19(17)21(22)13-15(16)7-1/h1-14H,RAASUWZPTOJQAY-UHFFFAOYSA-N,c1ccc2cc3c4ccccc4c5ccccc5c3cc2c1,-8.2405
3580,B-3581,triphenylene,InChI=1S/C18H12/c1-2-8-14-13(7-1)15-9-3-4-11-17(15)18-12-6-5-10-16(14)18/h1-12H,SLGBZMMZGDRARJ-UHFFFAOYSA-N,c1ccc2c(c1)c3ccccc3c4ccccc24,-6.7447
3581,B-3582,chrysene,InChI=1S/C18H12/c1-3-7-15-13(5-1)9-11-18-16-8-4-2-6-14(16)10-12-17(15)18/h1-12H,WDECIBYCCFPHNR-UHFFFAOYSA-N,c1ccc2c(c1)ccc3c4ccccc4ccc23,-8.0575
3582,B-3583,"dibenzo[a,j]anthracene",InChI=1S/C22H14/c1-3-7-19-15(5-1)9-11-17-13-18-12-10-16-6-2-4-8-20(16)22(18)14-21(17)19/h1-14H,KLIHYVJAYWCEDM-UHFFFAOYSA-N,c1ccc2c(c1)ccc3cc4ccc5ccccc5c4cc23,-8.4318
3583,B-3584,11h-benzo(a)fluorene,"InChI=1S/C17H12/c1-3-7-14-12(5-1)9-10-16-15-8-4-2-6-13(15)11-17(14)16/h1-10H,11H2",HKMTVMBEALTRRR-UHFFFAOYSA-N,C1c2ccccc2c3ccc4ccccc4c13,-6.678
3584,B-3585,11h-benzo(b)fluorene,"InChI=1S/C17H12/c1-2-6-13-11-17-15(9-12(13)5-1)10-14-7-3-4-8-16(14)17/h1-9,11H,10H2",HAPOJKSPCGLOOD-UHFFFAOYSA-N,C1c2ccccc2c3cc4ccccc4cc13,-7.733
3585,B-3586,9-nitroanthracene,InChI=1S/C14H9NO2/c16-15(17)14-12-7-3-1-5-10(12)9-11-6-2-4-8-13(11)14/h1-9H,LSIKFJXEYJIZNB-UHFFFAOYSA-N,[O-][N+](=O)c1c2ccccc2cc3ccccc13,-6.2918
3586,B-3587,2-nitrofluorene,"InChI=1S/C13H9NO2/c15-14(16)11-5-6-13-10(8-11)7-9-3-1-2-4-12(9)13/h1-6,8H,7H2",XFOHWECQTFIEIX-UHFFFAOYSA-N,[O-][N+](=O)c1ccc2c(Cc3ccccc23)c1,-5.9903
3587,B-3588,2-methylanthracene,"InChI=1S/C15H12/c1-11-6-7-14-9-12-4-2-3-5-13(12)10-15(14)8-11/h2-10H,1H3",GYMFBYTZOGMSQJ-UHFFFAOYSA-N,Cc1ccc2cc3ccccc3cc2c1,-6.9555
3588,B-3589,9-methylanthracene,"InChI=1S/C15H12/c1-11-14-8-4-2-6-12(14)10-13-7-3-5-9-15(11)13/h2-10H,1H3",CPGPAVAKSZHMBP-UHFFFAOYSA-N,Cc1c2ccccc2cc3ccccc13,-5.8672
3589,B-3590,"9,10-dimethylanthracene","InChI=1S/C16H14/c1-11-13-7-3-5-9-15(13)12(2)16-10-6-4-8-14(11)16/h3-10H,1-2H3",JTGMTYWYUZDRBK-UHFFFAOYSA-N,Cc1c2ccccc2c(C)c3ccccc13,-6.5663
3590,B-3591,1-methylphenanthrene,"InChI=1S/C15H12/c1-11-5-4-8-15-13(11)10-9-12-6-2-3-7-14(12)15/h2-10H,1H3",DOWJXOHBNXRUOD-UHFFFAOYSA-N,Cc1cccc2c1ccc3ccccc23,-5.8541
3591,B-3592,1-methylfluorene,"InChI=1S/C14H12/c1-10-5-4-8-13-12-7-3-2-6-11(12)9-14(10)13/h2-8H,9H2,1H3",GKEUODMJRFDLJY-UHFFFAOYSA-N,Cc1cccc2c1Cc3ccccc23,-5.2184
3592,B-3593,2-methylphenanthrene,"InChI=1S/C15H12/c1-11-6-9-15-13(10-11)8-7-12-4-2-3-5-14(12)15/h2-10H,1H3",KANLOADZXMMCQA-UHFFFAOYSA-N,Cc1ccc2c(ccc3ccccc23)c1,-5.8367
3593,B-3594,ethylanthracene,"InChI=1S/C16H14/c1-2-12-7-8-15-10-13-5-3-4-6-14(13)11-16(15)9-12/h3-11H,2H2,1H3",ZXAGXLDEMUNQSH-UHFFFAOYSA-N,CCc1ccc2cc3ccccc3cc2c1,-6.8863
3594,B-3595,benzene,InChI=1S/C6H6/c1-2-4-6-5-3-1/h1-6H,UHOVQNZJYSORNB-UHFFFAOYSA-N,c1ccccc1,-1.6399
3595,B-3596,o-xylene,"InChI=1S/C8H10/c1-7-5-3-4-6-8(7)2/h3-6H,1-2H3",CTQNGGLPUBDAKN-UHFFFAOYSA-N,Cc1ccccc1C,-2.7756
3596,B-3597,"1,2,4-trimethylbenzene","InChI=1S/C9H12/c1-7-4-5-8(2)9(3)6-7/h4-6H,1-3H3",GWHJZXXIDMPWGX-UHFFFAOYSA-N,Cc1ccc(C)c(C)c1,-3.324
3597,B-3598,t-butylbenzene,"InChI=1S/C10H14/c1-10(2,3)9-7-5-4-6-8-9/h4-8H,1-3H3",YTZKOQUCBOVLHL-UHFFFAOYSA-N,CC(C)(C)c1ccccc1,-3.658
3598,B-3599,cumene,"InChI=1S/C9H12/c1-8(2)9-6-4-3-5-7-9/h3-8H,1-2H3",RWGFKTVRMDUZSP-UHFFFAOYSA-N,CC(C)c1ccccc1,-3.2924
3599,B-3600,alpha-methylstyrene,"InChI=1S/C9H10/c1-8(2)9-6-4-3-5-7-9/h3-7H,1H2,2H3",XYLMUPLGERFSHI-UHFFFAOYSA-N,CC(=C)c1ccccc1,-3.0081
3600,B-3601,p-cymene,"InChI=1S/C10H14/c1-8(2)10-6-4-9(3)5-7-10/h4-8H,1-3H3",HFPZCAJZSCWRBC-UHFFFAOYSA-N,CC(C)c1ccc(C)cc1,-3.7586
3601,B-3602,ethylbenzene,"InChI=1S/C8H10/c1-2-8-6-4-3-5-7-8/h3-7H,2H2,1H3",YNQLUTRBYVCPMQ-UHFFFAOYSA-N,CCc1ccccc1,-2.7981
3602,B-3603,styrene,"InChI=1S/C8H8/c1-2-8-6-4-3-5-7-8/h2-7H,1H2",PPBRXRYQALVLMV-UHFFFAOYSA-N,C=Cc1ccccc1,-2.5263
3603,B-3604,"benzene, 1,1'-methylenebis-","InChI=1S/C13H12/c1-3-7-12(8-4-1)11-13-9-5-2-6-10-13/h1-10H,11H2",CZZYITDELCSZES-UHFFFAOYSA-N,C(c1ccccc1)c2ccccc2,-4.0767
3604,B-3605,bibenzyl,"InChI=1S/C14H14/c1-3-7-13(8-4-1)11-12-14-9-5-2-6-10-14/h1-10H,11-12H2",QWUWMCYKGHVNAV-UHFFFAOYSA-N,C(Cc1ccccc1)c2ccccc2,-4.6272
3605,B-3606,n-propylbenzene,"InChI=1S/C9H12/c1-2-6-9-7-4-3-5-8-9/h3-5,7-8H,2,6H2,1H3",ODLMAHJVESYWTB-UHFFFAOYSA-N,CCCc1ccccc1,-3.3622
3606,B-3607,n-butylbenzene,"InChI=1S/C10H14/c1-2-3-7-10-8-5-4-6-9-10/h4-6,8-9H,2-3,7H2,1H3",OCKPCBLVNKHBMX-UHFFFAOYSA-N,CCCCc1ccccc1,-4.0559
3607,B-3608,p-diethylbenzene,"InChI=1S/C10H14/c1-3-9-5-7-10(4-2)8-6-9/h5-8H,3-4H2,1-2H3",DSNHSQKRULAAEI-UHFFFAOYSA-N,CCc1ccc(CC)cc1,-3.7334
3608,B-3609,p-xylene,"InChI=1S/C8H10/c1-7-3-5-8(2)6-4-7/h3-6H,1-2H3",URLKBWYHVLBVBO-UHFFFAOYSA-N,Cc1ccc(C)cc1,-2.8165
3609,B-3610,m-xylene,"InChI=1S/C8H10/c1-7-4-3-5-8(2)6-7/h3-6H,1-2H3",IVSZLXZYQVIEFR-UHFFFAOYSA-N,Cc1cccc(C)c1,-2.8192
3610,B-3611,"1,3,5-trimethylbenzene","InChI=1S/C9H12/c1-7-4-8(2)6-9(3)5-7/h4-6H,1-3H3",AUHZEENZYGFFBQ-UHFFFAOYSA-N,Cc1cc(C)cc(C)c1,-3.3969
3611,B-3612,toluene,"InChI=1S/C7H8/c1-7-5-3-2-4-6-7/h2-6H,1H3",YXFVVABEGXRONW-UHFFFAOYSA-N,Cc1ccccc1,-2.2435
3612,B-3613,o-diethylbenzene,"InChI=1S/C10H14/c1-3-9-7-5-6-8-10(9)4-2/h5-8H,3-4H2,1-2H3",KVNYFPKFSJIPBJ-UHFFFAOYSA-N,CCc1ccccc1CC,-3.2759
3613,B-3614,sec-butylbenzene,"InChI=1S/C10H14/c1-3-9(2)10-7-5-4-6-8-10/h4-9H,3H2,1-2H3",ZJMWRROPUADPEA-UHFFFAOYSA-N,CCC(C)c1ccccc1,-3.8823
3614,B-3615,m-diethylbenzene,"InChI=1S/C10H14/c1-3-9-6-5-7-10(4-2)8-9/h5-8H,3-4H2,1-2H3",AFZZYIJIWUTJFO-UHFFFAOYSA-N,CCc1cccc(CC)c1,-3.7476
3615,B-3616,"1,2,3-trimethylbenzene","InChI=1S/C9H12/c1-7-5-4-6-8(2)9(7)3/h4-6H,1-3H3",FYGHSUNMUKGBRK-UHFFFAOYSA-N,Cc1cccc(C)c1C,-3.2037
3616,B-3617,ethynyl benzene,"InChI=1S/C8H6/c1-2-8-6-4-3-5-7-8/h1,3-7H",UEXCJVNBTNXOEH-UHFFFAOYSA-N,C#Cc1ccccc1,-2.3502
3617,B-3618,pentylbenzene,"InChI=1S/C11H16/c1-2-3-5-8-11-9-6-4-7-10-11/h4,6-7,9-10H,2-3,5,8H2,1H3",PWATWSYOIIXYMA-UHFFFAOYSA-N,CCCCCc1ccccc1,-4.6434
3618,B-3619,isobutylbenzene,"InChI=1S/C10H14/c1-9(2)8-10-6-4-3-5-7-10/h3-7,9H,8H2,1-2H3",KXUHSQYYJYAXGZ-UHFFFAOYSA-N,CC(C)Cc1ccccc1,-4.1235
3619,B-3620,1-ethyl-2-methylbenzene,"InChI=1S/C9H12/c1-3-9-7-5-4-6-8(9)2/h4-7H,3H2,1-2H3",HYFLWBNQFMXCPA-UHFFFAOYSA-N,CCc1ccccc1C,-3.2072
3620,B-3621,p-tolyltoluene,"InChI=1S/C14H14/c1-11-3-7-13(8-4-11)14-9-5-12(2)6-10-14/h3-10H,1-2H3",RZTDESRVPFKCBH-UHFFFAOYSA-N,Cc1ccc(cc1)c2ccc(C)cc2,-6.0177
3621,B-3622,p-ethyltoluene,"InChI=1S/C9H12/c1-3-9-6-4-8(2)5-7-9/h4-7H,3H2,1-2H3",JRLPEMVDPFPYPJ-UHFFFAOYSA-N,CCc1ccc(C)cc1,-3.1026
3622,B-3623,pentamethylbenzene,"InChI=1S/C11H16/c1-7-6-8(2)10(4)11(5)9(7)3/h6H,1-5H3",BEZDDPMMPIDMGJ-UHFFFAOYSA-N,Cc1cc(C)c(C)c(C)c1C,-3.9807
3623,B-3624,n-hexylbenzene,"InChI=1S/C12H18/c1-2-3-4-6-9-12-10-7-5-8-11-12/h5,7-8,10-11H,2-4,6,9H2,1H3",LTEQMZWBSYACLV-UHFFFAOYSA-N,CCCCCCc1ccccc1,-5.2551
3624,B-3625,octylbenzene,"InChI=1S/C14H22/c1-2-3-4-5-6-8-11-14-12-9-7-10-13-14/h7,9-10,12-13H,2-6,8,11H2,1H3",CDKDZKXSXLNROY-UHFFFAOYSA-N,CCCCCCCCc1ccccc1,-6.46
3625,B-3626,pentachloronitrobenzene,InChI=1S/C6Cl5NO2/c7-1-2(8)4(10)6(12(13)14)5(11)3(1)9,LKPLKUMXSAEKID-UHFFFAOYSA-N,[O-][N+](=O)c1c(Cl)c(Cl)c(Cl)c(Cl)c1Cl,-5.8269
3626,B-3627,"2,4,6-trichloroanisole","InChI=1S/C7H5Cl3O/c1-11-7-5(9)2-4(8)3-6(7)10/h2-3H,1H3",WCVOGSZTONGSQY-UHFFFAOYSA-N,COc1c(Cl)cc(Cl)cc1Cl,-4.3253
3627,B-3628,"1,2,3-trichlorobenzene",InChI=1S/C6H3Cl3/c7-4-2-1-3-5(8)6(4)9/h1-3H,RELMFMZEBKVZJC-UHFFFAOYSA-N,Clc1cccc(Cl)c1Cl,-4.0035
3628,B-3629,2-chloro-1-nitrobenzene,InChI=1S/C6H4ClNO2/c7-5-3-1-2-4-6(5)8(9)10/h1-4H,BFCFYVKQTRLZHA-UHFFFAOYSA-N,[O-][N+](=O)c1ccccc1Cl,-2.8964
3629,B-3630,"2,4-dichloronitrobenzene",InChI=1S/C6H3Cl2NO2/c7-4-1-2-5(8)6(3-4)9(10)11/h1-3H,RZKKOBGFCAHLCZ-UHFFFAOYSA-N,[O-][N+](=O)c1cc(Cl)ccc1Cl,-4.1372
3630,B-3631,"2,4,5-trichloronitrobenzene",InChI=1S/C6H2Cl3NO2/c7-3-1-5(9)6(10(11)12)2-4(3)8/h1-2H,IBRBMZRLVYKVRF-UHFFFAOYSA-N,[O-][N+](=O)c1cc(Cl)c(Cl)cc1Cl,-3.8866
3631,B-3632,2-chlorotoluene,"InChI=1S/C7H7Cl/c1-6-4-2-3-5-7(6)8/h2-5H,1H3",IBSQPLPBRSHTTG-UHFFFAOYSA-N,Cc1ccccc1Cl,-2.5295
3632,B-3633,2-dichlorobenzene,InChI=1S/C6H4Cl2/c7-5-3-1-2-4-6(5)8/h1-4H,RFFLAFLAYFXFSW-UHFFFAOYSA-N,Clc1ccccc1Cl,-2.9742
3633,B-3634,"3,4-dichloronitrobenzene",InChI=1S/C6H3Cl2NO2/c7-5-2-1-4(9(10)11)3-6(5)8/h1-3H,NTBYINQTYWZXLH-UHFFFAOYSA-N,[O-][N+](=O)c1ccc(Cl)c(Cl)c1,-3.2005
3634,B-3635,p-chloronitrobenzene,InChI=1S/C6H4ClNO2/c7-5-1-3-6(4-2-5)8(9)10/h1-4H,CZGCEKJOLUNIFY-UHFFFAOYSA-N,[O-][N+](=O)c1ccc(Cl)cc1,-2.8453
3635,B-3636,"1,4-dibromobenzene",InChI=1S/C6H4Br2/c7-5-1-2-6(8)4-3-5/h1-4H,SWJPEBQEEAHIGZ-UHFFFAOYSA-N,Brc1ccc(Br)cc1,-4.0717
3636,B-3637,p-bromotoluene,"InChI=1S/C7H7Br/c1-6-2-4-7(8)5-3-6/h2-5H,1H3",ZBTMRBYMKUEVEU-UHFFFAOYSA-N,Cc1ccc(Br)cc1,-3.1917
3637,B-3638,p-bromochlorobenzene,InChI=1S/C6H4BrCl/c7-5-1-3-6(8)4-2-5/h1-4H,NHDODQWIKUYWMW-UHFFFAOYSA-N,Clc1ccc(Br)cc1,-3.6298
3638,B-3639,p-chlorotoluene,"InChI=1S/C7H7Cl/c1-6-2-4-7(8)5-3-6/h2-5H,1H3",NPDACUSDTOMAMK-UHFFFAOYSA-N,Cc1ccc(Cl)cc1,-3.0771
3639,B-3640,4-dichlorobenzene,InChI=1S/C6H4Cl2/c7-5-1-2-6(8)4-3-5/h1-4H,OCJBOOLMMGQPQU-UHFFFAOYSA-N,Clc1ccc(Cl)cc1,-3.2572
3640,B-3641,m-dibromobenzene,InChI=1S/C6H4Br2/c7-5-2-1-3-6(8)4-5/h1-4H,JSRLURSZEMLAFO-UHFFFAOYSA-N,Brc1cccc(Br)c1,-3.5435
3641,B-3642,m-bromochlorobenzene,InChI=1S/C6H4BrCl/c7-5-2-1-3-6(8)4-5/h1-4H,JRGGUPZKKTVKOV-UHFFFAOYSA-N,Clc1cccc(Br)c1,-3.2102
3642,B-3643,"1,3,5-trichlorobenzene",InChI=1S/C6H3Cl3/c7-4-1-5(8)3-6(9)2-4/h1-3H,XKEFYDZQGKAQCN-UHFFFAOYSA-N,Clc1cc(Cl)cc(Cl)c1,-4.4799
3643,B-3644,bromobenzene,InChI=1S/C6H5Br/c7-6-4-2-1-3-5-6/h1-5H,QARVLSVVCXYDNA-UHFFFAOYSA-N,Brc1ccccc1,-2.5466
3644,B-3645,chlorobenzene,InChI=1S/C6H5Cl/c7-6-4-2-1-3-5-6/h1-5H,MVPPADPHJFYWMZ-UHFFFAOYSA-N,Clc1ccccc1,-2.3542
3645,B-3646,"2,3,5,6-tetrachloronitrobenzene",InChI=1S/C6HCl4NO2/c7-2-1-3(8)5(10)6(4(2)9)11(12)13/h1H,XQTLDIFVVHJORV-UHFFFAOYSA-N,[O-][N+](=O)c1c(Cl)c(Cl)cc(Cl)c1Cl,-5.0963
3646,B-3647,"1,2,4-trichlorobenzene",InChI=1S/C6H3Cl3/c7-4-1-2-5(8)6(9)3-4/h1-3H,PBKONEOXTCPAFI-UHFFFAOYSA-N,Clc1ccc(Cl)c(Cl)c1,-3.5686
3647,B-3648,3-chloro-nitrobenzene,InChI=1S/C6H4ClNO2/c7-5-2-1-3-6(4-5)8(9)10/h1-4H,KMAQZIILEGKYQZ-UHFFFAOYSA-N,[O-][N+](=O)c1cccc(Cl)c1,-2.7613
3648,B-3649,p-fluorobenzyl chloride,"InChI=1S/C7H6ClF/c8-5-6-1-3-7(9)4-2-6/h1-4H,5H2",IZXWCDITFDNEBY-UHFFFAOYSA-N,Fc1ccc(CCl)cc1,-2.5442
3649,B-3650,m-difluorobenzene,InChI=1S/C6H4F2/c7-5-2-1-3-6(8)4-5/h1-4H,UEMGWPRHOOEKTA-UHFFFAOYSA-N,Fc1cccc(F)c1,-2.0004
3650,B-3651,fluorobenzene,InChI=1S/C6H5F/c7-6-4-2-1-3-5-6/h1-5H,PYLWMHQQBFSUBP-UHFFFAOYSA-N,Fc1ccccc1,-1.7952
3651,B-3652,p-difluorobenzene,InChI=1S/C6H4F2/c7-5-1-2-6(8)4-3-5/h1-4H,QUGUFLJIAFISSW-UHFFFAOYSA-N,Fc1ccc(F)cc1,-1.9709
3652,B-3653,3-dichlorobenzene,InChI=1S/C6H4Cl2/c7-5-2-1-3-6(8)4-5/h1-4H,ZPQOPVIELGIULI-UHFFFAOYSA-N,Clc1cccc(Cl)c1,-3.0704
3653,B-3654,o-dibromobenzene,InChI=1S/C6H4Br2/c7-5-3-1-2-4-6(5)8/h1-4H,WQONPSCCEXUXTQ-UHFFFAOYSA-N,Brc1ccccc1Br,-3.5
3654,B-3655,m-bromotoluene,"InChI=1S/C7H7Br/c1-6-3-2-4-7(8)5-6/h2-5H,1H3",WJIFKOVZNJTSGO-UHFFFAOYSA-N,Cc1cccc(Br)c1,-3.523
3655,B-3656,iodobenzene,InChI=1S/C6H5I/c7-6-4-2-1-3-5-6/h1-5H,SNHMUERNLJLMHN-UHFFFAOYSA-N,Ic1ccccc1,-2.7782
3656,B-3657,pentachlorobenzene,InChI=1S/C6HCl5/c7-2-1-3(8)5(10)6(11)4(2)9/h1H,CEOCDNVZRAIOQZ-UHFFFAOYSA-N,Clc1cc(Cl)c(Cl)c(Cl)c1Cl,-5.4789
3657,B-3658,m-chlorofluorobenzene,InChI=1S/C6H4ClF/c7-5-2-1-3-6(8)4-5/h1-4H,VZHJIJZEOCBKRA-UHFFFAOYSA-N,Fc1cccc(Cl)c1,-2.3457
3658,B-3659,"1,2,3,4-tetrachlorobenzene",InChI=1S/C6H2Cl4/c7-3-1-2-4(8)6(10)5(3)9/h1-2H,GBDZXPJXOMHESU-UHFFFAOYSA-N,Clc1ccc(Cl)c(Cl)c1Cl,-4.5619
3659,B-3660,"1,2,3,5-tetrachlorobenzene",InChI=1S/C6H2Cl4/c7-3-1-4(8)6(10)5(9)2-3/h1-2H,QZYNWJQFTJXIRN-UHFFFAOYSA-N,Clc1cc(Cl)c(Cl)c(Cl)c1,-4.6267
3660,B-3661,"2,3,4,5-tetrachloronitrobenzene",InChI=1S/C6HCl4NO2/c7-2-1-3(11(12)13)5(9)6(10)4(2)8/h1H,MTBYTWZDRVOMBR-UHFFFAOYSA-N,[O-][N+](=O)c1cc(Cl)c(Cl)c(Cl)c1Cl,-4.5531
3661,B-3662,m-bromofluorobenzene,InChI=1S/C6H4BrF/c7-5-2-1-3-6(8)4-5/h1-4H,QDFKKJYEIFBEFC-UHFFFAOYSA-N,Fc1cccc(Br)c1,-2.6656
3662,B-3663,"2,3,4-trichloronitrobenzene",InChI=1S/C6H2Cl3NO2/c7-3-1-2-4(10(11)12)6(9)5(3)8/h1-2H,BGKIECJVXXHLDP-UHFFFAOYSA-N,[O-][N+](=O)c1ccc(Cl)c(Cl)c1Cl,-3.94
3663,B-3664,"2,4,6-trichloronitrobenzene",InChI=1S/C6H2Cl3NO2/c7-3-1-4(8)6(10(11)12)5(9)2-3/h1-2H,AEBJDOTVYMITIA-UHFFFAOYSA-N,[O-][N+](=O)c1c(Cl)cc(Cl)cc1Cl,-4.5591
3664,B-3665,trimethylamine,InChI=1S/C3H9N/c1-4(2)3/h1-3H3,GETQZCLCWQTVFV-UHFFFAOYSA-N,CN(C)C,1.1777
3665,B-3666,tripropylamine,"InChI=1S/C9H21N/c1-4-7-10(8-5-2)9-6-3/h4-9H2,1-3H3",YFTHZRPMJXBUME-UHFFFAOYSA-N,CCCN(CCC)CCC,-2.2823
3666,B-3667,2-ethylhexylamine,"InChI=1S/C8H19N/c1-3-5-6-8(4-2)7-9/h8H,3-7,9H2,1-2H3",LTHNHFOGQMKPOV-UHFFFAOYSA-N,CCCCC(CC)CN,-1.7135
3667,B-3668,n-hexylamine,"InChI=1S/C6H15N/c1-2-3-4-5-6-7/h2-7H2,1H3",BMVXCPBXGZKUPN-UHFFFAOYSA-N,CCCCCCN,-0.9259999999999999
3668,B-3669,dibutylamine,"InChI=1S/C8H19N/c1-3-5-7-9-8-6-4-2/h9H,3-8H2,1-2H3",JQVDAXLFBXTEQA-UHFFFAOYSA-N,CCCCNCCCC,-1.4393
3669,B-3670,triethylamine,"InChI=1S/C6H15N/c1-4-7(5-2)6-3/h4-6H2,1-3H3",ZMANZCXQSJIPKH-UHFFFAOYSA-N,CCN(CC)CC,-0.1377
3670,B-3671,diallylamine,"InChI=1S/C6H11N/c1-3-5-7-6-4-2/h3-4,7H,1-2,5-6H2",DYUWTXWIYMHBQS-UHFFFAOYSA-N,C=CCNCC=C,-0.053
3671,B-3672,dipropylamine,"InChI=1S/C6H15N/c1-3-5-7-6-4-2/h7H,3-6H2,1-2H3",WEHWNAOGRSTTBQ-UHFFFAOYSA-N,CCCNCCC,-0.2372
3672,B-3673,aniline,"InChI=1S/C6H7N/c7-6-4-2-1-3-5-6/h1-5H,7H2",PAYRUJLWNCNPSJ-UHFFFAOYSA-N,Nc1ccccc1,-0.4128
3673,B-3674,"n,n-diethylaniline","InChI=1S/C10H15N/c1-3-11(4-2)10-8-6-5-7-9-10/h5-9H,3-4H2,1-2H3",GGSUCNLOZRCGPQ-UHFFFAOYSA-N,CCN(CC)c1ccccc1,-3.0278
3674,B-3675,2-chloroaniline,"InChI=1S/C6H6ClN/c7-5-3-1-2-4-6(5)8/h1-4H,8H2",AKCRQHGQIJBRMN-UHFFFAOYSA-N,Nc1ccccc1Cl,-1.1941
3675,B-3676,o-toluidine,"InChI=1S/C7H9N/c1-6-4-2-3-5-7(6)8/h2-5H,8H2,1H3",RNVCVTLRINQCPJ-UHFFFAOYSA-N,Cc1ccccc1N,-0.8099
3676,B-3677,n-methylaniline,"InChI=1S/C7H9N/c1-8-7-5-3-2-4-6-7/h2-6,8H,1H3",AFBPFSWMIHJQDM-UHFFFAOYSA-N,CNc1ccccc1,-1.2803
3677,B-3678,4-chloroaniline,"InChI=1S/C6H6ClN/c7-5-1-3-6(8)4-2-5/h1-4H,8H2",QSNSCYSYFYORTR-UHFFFAOYSA-N,Nc1ccc(Cl)cc1,-1.5147
3678,B-3679,p-toluidine,"InChI=1S/C7H9N/c1-6-2-4-7(8)5-3-6/h2-5H,8H2,1H3",RZXMPPFPUUCRFN-UHFFFAOYSA-N,Cc1ccc(N)cc1,-1.2171
3679,B-3680,3-chloroaniline,"InChI=1S/C6H6ClN/c7-5-2-1-3-6(8)4-5/h1-4H,8H2",PNPCRKVUWYDDST-UHFFFAOYSA-N,Nc1cccc(Cl)c1,-1.3734
3680,B-3681,m-toluidine,"InChI=1S/C7H9N/c1-6-3-2-4-7(8)5-6/h2-5H,8H2,1H3",JJYPMNFTHPTTDI-UHFFFAOYSA-N,Cc1cccc(N)c1,-0.8539
3681,B-3682,"n,n-dimethylaniline","InChI=1S/C8H11N/c1-9(2)8-6-4-3-5-7-8/h3-7H,1-2H3",JLTDJTHDQAWBAV-UHFFFAOYSA-N,CN(C)c1ccccc1,-1.9221
3682,B-3683,diphenylamine,"InChI=1S/C12H11N/c1-3-7-11(8-4-1)13-12-9-5-2-6-10-12/h1-10,13H",DMBHHRLKUKUOEG-UHFFFAOYSA-N,N(c1ccccc1)c2ccccc2,-3.5042
3683,B-3684,p-anisaldehyde,"InChI=1S/C8H8O2/c1-10-8-4-2-7(6-9)3-5-8/h2-6H,1H3",ZRSNZINYAWTAHE-UHFFFAOYSA-N,COc1ccc(C=O)cc1,-1.5016
3684,B-3685,"2,4-dichloroaniline","InChI=1S/C6H5Cl2N/c7-4-1-2-6(9)5(8)3-4/h1-3H,9H2",KQCMTOWTPBNWDB-UHFFFAOYSA-N,Nc1ccc(Cl)cc1Cl,-2.4172
3685,B-3686,"3,5-dichloroaniline","InChI=1S/C6H5Cl2N/c7-4-1-5(8)3-6(9)2-4/h1-3H,9H2",UQRLKWGPEVNVHT-UHFFFAOYSA-N,Nc1cc(Cl)cc(Cl)c1,-2.3153
3686,B-3687,"2,6-dichlorophenol","InChI=1S/C6H4Cl2O/c7-4-2-1-3-5(8)6(4)9/h1-3,9H",HOLHYSJJBXSLMV-UHFFFAOYSA-N,Oc1c(Cl)cccc1Cl,-1.9334
3687,B-3688,pentachlorophenol,InChI=1S/C6HCl5O/c7-1-2(8)4(10)6(12)5(11)3(1)9/h12H,IZUPBVBPLAPZRR-UHFFFAOYSA-N,Oc1c(Cl)c(Cl)c(Cl)c(Cl)c1Cl,-4.2793
3688,B-3689,thymol,"InChI=1S/C10H14O/c1-7(2)9-5-4-8(3)6-10(9)11/h4-7,11H,1-3H3",MGSRCZKZVOBKFT-UHFFFAOYSA-N,CC(C)c1ccc(C)cc1O,-2.2225
3689,B-3690,o-ethylphenol,"InChI=1S/C8H10O/c1-2-7-5-3-4-6-8(7)9/h3-6,9H,2H2,1H3",IXQGCWUGDFDQMF-UHFFFAOYSA-N,CCc1ccccc1O,-1.3594
3690,B-3691,2-methoxyphenol,"InChI=1S/C7H8O2/c1-9-7-5-3-2-4-6(7)8/h2-5,8H,1H3",LHGVFZTZFXWLCP-UHFFFAOYSA-N,COc1ccccc1O,-0.8221
3691,B-3692,2-phenylphenol,"InChI=1S/C12H10O/c13-12-9-5-4-8-11(12)10-6-2-1-3-7-10/h1-9,13H",LLEMOWNGBBNAJR-UHFFFAOYSA-N,Oc1ccccc1c2ccccc2,-2.3859
3692,B-3693,"2,6-dimethoxyphenol","InChI=1S/C8H10O3/c1-10-6-4-3-5-7(11-2)8(6)9/h3-5,9H,1-2H3",KLIDCXVFHGNTTM-UHFFFAOYSA-N,COc1cccc(OC)c1O,-0.9525
3693,B-3694,p-phenylphenol,"InChI=1S/C12H10O/c13-12-8-6-11(7-9-12)10-4-2-1-3-5-10/h1-9,13H",YXVFYQXJAXKLAK-UHFFFAOYSA-N,Oc1ccc(cc1)c2ccccc2,-3.4812
3694,B-3695,o-cresol,"InChI=1S/C7H8O/c1-6-4-2-3-5-7(6)8/h2-5,8H,1H3",QWVGKYWNOKOFNN-UHFFFAOYSA-N,Cc1ccccc1O,-0.6207
3695,B-3696,2-chlorophenol,"InChI=1S/C6H5ClO/c7-5-3-1-2-4-6(5)8/h1-4,8H",ISPYQTSUDJAMAB-UHFFFAOYSA-N,Oc1ccccc1Cl,-1.056