,ID,Name,InChI,InChIKey,SMILES,Solubility
3995,B-3996,1-chloronaphthalene,InChI=1S/C10H7Cl/c11-10-7-3-5-8-4-1-2-6-9(8)10/h1-7H,JTPNRXUCIXHOKM-UHFFFAOYSA-N,Clc1cccc2ccccc12,-3.9706
3996,B-3997,1-naphthol,"InChI=1S/C10H8O/c11-10-7-3-5-8-4-1-2-6-9(8)10/h1-7,11H",KJCVRFUGPWSIIH-UHFFFAOYSA-N,Oc1cccc2ccccc12,-2.2214
3997,B-3998,naphthalene,InChI=1S/C10H8/c1-2-6-10-8-4-3-7-9(10)5-1/h1-8H,UFWIBTONFRDIAS-UHFFFAOYSA-N,c1ccc2ccccc2c1,-3.6165
3998,B-3999,2-methylnaphthalene,"InChI=1S/C11H10/c1-9-6-7-10-4-2-3-5-11(10)8-9/h2-8H,1H3",QIMMUPPBPVKWKM-UHFFFAOYSA-N,Cc1ccc2ccccc2c1,-3.762
3999,B-4000,2-chloronaphthalene,InChI=1S/C10H7Cl/c11-10-6-5-8-3-1-2-4-9(8)7-10/h1-7H,CGYGETOMCSJHJU-UHFFFAOYSA-N,Clc1ccc2ccccc2c1,-4.143
4000,B-4001,1-naphthylamine,"InChI=1S/C10H9N/c11-10-7-3-5-8-4-1-2-6-9(8)10/h1-7H,11H2",RUFPHBVGCFYCNW-UHFFFAOYSA-N,Nc1cccc2ccccc12,-1.9255
4001,B-4002,2-naphthol,"InChI=1S/C10H8O/c11-10-6-5-8-3-1-2-4-9(8)7-10/h1-7,11H",JWAZRIHNYRIHIV-UHFFFAOYSA-N,Oc1ccc2ccccc2c1,-2.2809
4002,B-4003,1-isothiocyanonaphthalene,InChI=1S/C11H7NS/c13-8-12-11-7-3-5-9-4-1-2-6-10(9)11/h1-7H,JBDOSUUXMYMWQH-UHFFFAOYSA-N,S=C=Nc1cccc2ccccc12,-4.6022
4003,B-4004,"1,4-dimethylnaphthalene","InChI=1S/C12H12/c1-9-7-8-10(2)12-6-4-3-5-11(9)12/h3-8H,1-2H3",APQSQLNWAIULLK-UHFFFAOYSA-N,Cc1ccc(C)c2ccccc12,-4.1369
4004,B-4005,"1,5-dimethylnaphthalene","InChI=1S/C12H12/c1-9-5-3-8-12-10(2)6-4-7-11(9)12/h3-8H,1-2H3",SDDBCEWUYXVGCQ-UHFFFAOYSA-N,Cc1cccc2c(C)cccc12,-4.756
4005,B-4006,"1,3-dimethylnapthalene","InChI=1S/C12H12/c1-9-7-10(2)12-6-4-3-5-11(12)8-9/h3-8H,1-2H3",QHJMFSMPSZREIF-UHFFFAOYSA-N,Cc1cc(C)c2ccccc2c1,-4.2907
4006,B-4007,"2,3-dimethylnaphthalene","InChI=1S/C12H12/c1-9-7-11-5-3-4-6-12(11)8-10(9)2/h3-8H,1-2H3",WWGUMAYGTYQSGA-UHFFFAOYSA-N,Cc1cc2ccccc2cc1C,-4.8949
4007,B-4008,"2,6-dimethylnaphthalene","InChI=1S/C12H12/c1-9-3-5-12-8-10(2)4-6-11(12)7-9/h3-8H,1-2H3",YGYNBBAUIYTWBF-UHFFFAOYSA-N,Cc1ccc2cc(C)ccc2c1,-4.8927
4008,B-4009,2-nitronaphthalene,InChI=1S/C10H7NO2/c12-11(13)10-6-5-8-3-1-2-4-9(8)7-10/h1-7H,ZJYJZEAJZXVAMF-UHFFFAOYSA-N,[O-][N+](=O)c1ccc2ccccc2c1,-4.2728
4009,B-4010,"2,3,6-trimethylnaphthalene","InChI=1S/C13H14/c1-9-4-5-12-7-10(2)11(3)8-13(12)6-9/h4-8H,1-3H3",UNBZRJCHIWTUHB-UHFFFAOYSA-N,Cc1ccc2cc(C)c(C)cc2c1,-5.0007
4010,B-4011,2-ethylnaphthalene,"InChI=1S/C12H12/c1-2-10-7-8-11-5-3-4-6-12(11)9-10/h3-9H,2H2,1H3",RJTJVVYSTUQWNI-UHFFFAOYSA-N,CCc1ccc2ccccc2c1,-4.2901
4011,B-4012,1-ethylnaphthalene,"InChI=1S/C12H12/c1-2-10-7-5-8-11-6-3-4-9-12(10)11/h3-9H,2H2,1H3",ZMXIYERNXPIYFR-UHFFFAOYSA-N,CCc1cccc2ccccc12,-4.1644
4012,B-4013,"1,4,5-trimethylnaphthalene","InChI=1S/C13H14/c1-9-7-8-11(3)13-10(2)5-4-6-12(9)13/h4-8H,1-3H3",FSAWRQYDMHSDRN-UHFFFAOYSA-N,Cc1ccc(C)c2c(C)cccc12,-4.9089
4013,B-4014,1-naphthalenemethanol,"InChI=1S/C11H10O/c12-8-10-6-3-5-9-4-1-2-7-11(9)10/h1-7,12H,8H2",PBLNHHSDYFYZNC-UHFFFAOYSA-N,OCc1cccc2ccccc12,-1.7444
4014,B-4015,dibenzofuran,InChI=1S/C12H8O/c1-3-7-11-9(5-1)10-6-2-4-8-12(10)13-11/h1-8H,TXCDCPKCNAJMEE-UHFFFAOYSA-N,o1c2ccccc2c3ccccc13,-4.7345
4015,B-4016,dibenzo-p-dioxin,InChI=1S/C12H8O2/c1-2-6-10-9(5-1)13-11-7-3-4-8-12(11)14-10/h1-8H,NFBOHOGPQUYFRF-UHFFFAOYSA-N,O1c2ccccc2Oc3ccccc13,-5.3106
4016,B-4017,1-chlorodibenzo-p-dioxin,InChI=1S/C12H7ClO2/c13-8-4-3-7-11-12(8)15-10-6-2-1-5-9(10)14-11/h1-7H,VGGGRWRBGXENKI-UHFFFAOYSA-N,Clc1cccc2Oc3ccccc3Oc12,-5.7196
4017,B-4018,2-chlorodibenzo-p-dioxin,InChI=1S/C12H7ClO2/c13-8-5-6-11-12(7-8)15-10-4-2-1-3-9(10)14-11/h1-7H,GIUGGRUEPHPVNR-UHFFFAOYSA-N,Clc1ccc2Oc3ccccc3Oc2c1,-5.8359
4018,B-4019,2-nitrotoluene,"InChI=1S/C7H7NO2/c1-6-4-2-3-5-7(6)8(9)10/h2-5H,1H3",PLAZTCDQAHEYBI-UHFFFAOYSA-N,Cc1ccccc1[N+]([O-])=O,-2.3243
4019,B-4020,2-nitroanisole,"InChI=1S/C7H7NO3/c1-11-7-5-3-2-4-6(7)8(9)10/h2-5H,1H3",CFBYEGUGFPZCNF-UHFFFAOYSA-N,COc1ccccc1[N+]([O-])=O,-1.9572
4020,B-4021,nitrobenzene,InChI=1S/C6H5NO2/c8-7(9)6-4-2-1-3-5-6/h1-5H,LQNUZADURLCDLV-UHFFFAOYSA-N,[O-][N+](=O)c1ccccc1,-1.7701
4021,B-4022,3-nitrotoluene,"InChI=1S/C7H7NO2/c1-6-3-2-4-7(5-6)8(9)10/h2-5H,1H3",QZYHIOPPLUPUJF-UHFFFAOYSA-N,Cc1cccc(c1)[N+]([O-])=O,-2.4382
4022,B-4023,"1,3,5-trinitrobenzene",InChI=1S/C6H3N3O6/c10-7(11)4-1-5(8(12)13)3-6(2-4)9(14)15/h1-3H,UATJOMSPNYCXIX-UHFFFAOYSA-N,[O-][N+](=O)c1cc(cc(c1)[N+]([O-])=O)[N+]([O-])=O,-2.8846
4023,B-4024,"1,3-dinitrobenzene",InChI=1S/C6H4N2O4/c9-7(10)5-2-1-3-6(4-5)8(11)12/h1-4H,WDCYWAQPCXBPJA-UHFFFAOYSA-N,[O-][N+](=O)c1cccc(c1)[N+]([O-])=O,-2.4989
4024,B-4025,p-nitrotoluene,"InChI=1S/C7H7NO2/c1-6-2-4-7(5-3-6)8(9)10/h2-5H,1H3",ZPTVNYMJQHSSEA-UHFFFAOYSA-N,Cc1ccc(cc1)[N+]([O-])=O,-2.4917
4025,B-4026,p-nitroanisole,"InChI=1S/C7H7NO3/c1-11-7-4-2-6(3-5-7)8(9)10/h2-5H,1H3",BNUHAJGCKIQFGE-UHFFFAOYSA-N,COc1ccc(cc1)[N+]([O-])=O,-2.4142
4026,B-4027,p-dinitrobenzene,InChI=1S/C6H4N2O4/c9-7(10)5-1-2-6(4-3-5)8(11)12/h1-4H,FYFDQJRXFWGIBS-UHFFFAOYSA-N,[O-][N+](=O)c1ccc(cc1)[N+]([O-])=O,-3.3867
4027,B-4028,"2,4,6-trinitrotoluene","InChI=1S/C7H5N3O6/c1-4-6(9(13)14)2-5(8(11)12)3-7(4)10(15)16/h2-3H,1H3",SPSSULHKWOKEEL-UHFFFAOYSA-N,Cc1c(cc(cc1[N+]([O-])=O)[N+]([O-])=O)[N+]([O-])=O,-3.2423
4028,B-4029,"2,4-dinitrotoluene","InChI=1S/C7H6N2O4/c1-5-2-3-6(8(10)11)4-7(5)9(12)13/h2-4H,1H3",RMBFBMJGBANMMK-UHFFFAOYSA-N,Cc1ccc(cc1[N+]([O-])=O)[N+]([O-])=O,-2.8289999999999997
4029,B-4030,o-dinitrobenzene,InChI=1S/C6H4N2O4/c9-7(10)5-3-1-2-4-6(5)8(11)12/h1-4H,IZUKQUVSCNEFMJ-UHFFFAOYSA-N,[O-][N+](=O)c1ccccc1[N+]([O-])=O,-3.1017
4030,B-4031,m-nitroanisole,"InChI=1S/C7H7NO3/c1-11-7-4-2-3-6(5-7)8(9)10/h2-5H,1H3",WGYFINWERLNPHR-UHFFFAOYSA-N,COc1cccc(c1)[N+]([O-])=O,-2.4861
4031,B-4032,"1,3-dino2 2-methyl benzene","InChI=1S/C7H6N2O4/c1-5-6(8(10)11)3-2-4-7(5)9(12)13/h2-4H,1H3",XTRDKALNCIHHNI-UHFFFAOYSA-N,Cc1c(cccc1[N+]([O-])=O)[N+]([O-])=O,-3.0003
4032,B-4033,"1,2-dino2 4-methyl benzene","InChI=1S/C7H6N2O4/c1-5-2-3-6(8(10)11)7(4-5)9(12)13/h2-4H,1H3",INYDMNPNDHRJQJ-UHFFFAOYSA-N,Cc1ccc(c(c1)[N+]([O-])=O)[N+]([O-])=O,-3.2604
4033,B-4034,o-ethyl carbamate (urethane),"InChI=1S/C3H7NO2/c1-2-6-3(4)5/h2H2,1H3,(H2,4,5)",JOYRKODLDBILNP-UHFFFAOYSA-N,CCOC(N)=O,0.7314
4034,B-4035,acrylamide,"InChI=1S/C3H5NO/c1-2-3(4)5/h2H,1H2,(H2,4,5)",HRPVXLWXLXDGHG-UHFFFAOYSA-N,NC(=O)C=C,0.9544
4035,B-4036,caprolactam,"InChI=1S/C6H11NO/c8-6-4-2-1-3-5-7-6/h1-5H2,(H,7,8)",JBKVHLHDHHXQEQ-UHFFFAOYSA-N,O=C1CCCCCN1,0.8339
4036,B-4037,butyramide,"InChI=1S/C4H9NO/c1-2-3-4(5)6/h2-3H2,1H3,(H2,5,6)",DNSISZSEWVHGLH-UHFFFAOYSA-N,CCCC(N)=O,0.2721
4037,B-4038,nitromethane,InChI=1S/CH3NO2/c1-2(3)4/h1H3,LYGJENNIWJXYER-UHFFFAOYSA-N,C[N+]([O-])=O,0.2597
4038,B-4039,nitroethane,"InChI=1S/C2H5NO2/c1-2-3(4)5/h2H2,1H3",MCSAJNNLRCFZED-UHFFFAOYSA-N,CC[N+]([O-])=O,-0.2034
4039,B-4040,1-nitropropane,"InChI=1S/C3H7NO2/c1-2-3-4(5)6/h2-3H2,1H3",JSZOAYXJRCEYSX-UHFFFAOYSA-N,CCC[N+]([O-])=O,-0.7737
4040,B-4041,"glycerol 1,3-dinitrate","InChI=1S/C3H6N2O7/c6-3(1-11-4(7)8)2-12-5(9)10/h3,6H,1-2H2",ASIGVDLTBLZXNC-UHFFFAOYSA-N,OC(CO[N+]([O-])=O)CO[N+]([O-])=O,-0.366
4041,B-4042,1-nitrobutane,"InChI=1S/C4H9NO2/c1-2-3-4-5(6)7/h2-4H2,1H3",NALZTFARIYUCBY-UHFFFAOYSA-N,CCCC[N+]([O-])=O,-1.3506
4042,B-4043,1-nitropentane,"InChI=1S/C5H11NO2/c1-2-3-4-5-6(7)8/h2-5H2,1H3",BVALZCVRLDMXOQ-UHFFFAOYSA-N,CCCCC[N+]([O-])=O,-1.9548
4043,B-4044,ethylene glycol dinitrate,InChI=1S/C2H4N2O6/c5-3(6)9-1-2-10-4(7)8/h1-2H2,UQXKXGWGFRWILX-UHFFFAOYSA-N,[O-][N+](=O)OCCO[N+]([O-])=O,-1.3495
4044,B-4045,1-pentyne,"InChI=1S/C5H8/c1-3-5-4-2/h1H,4-5H2,2H3",IBXNCJKFFQIKKY-UHFFFAOYSA-N,CCCC#C,-1.6374
4045,B-4046,diethyl ether,"InChI=1S/C4H10O/c1-3-5-4-2/h3-4H2,1-2H3",RTZKZFJDLAIYFH-UHFFFAOYSA-N,CCOCC,-0.0889
4046,B-4047,di-isopropyl ether,"InChI=1S/C6H14O/c1-5(2)7-6(3)4/h5-6H,1-4H3",ZAFNJMIOTHYJRJ-UHFFFAOYSA-N,CC(C)OC(C)C,-1.0649
4047,B-4048,di(n-propyl) ether,"InChI=1S/C6H14O/c1-3-5-7-6-4-2/h3-6H2,1-2H3",POLCUAVZOMRGSN-UHFFFAOYSA-N,CCCOCCC,-1.3192
4048,B-4049,bis(2-chloroethyl) ether,InChI=1S/C4H8Cl2O/c5-1-3-7-4-2-6/h1-4H2,ZNSMNVMLTJELDZ-UHFFFAOYSA-N,ClCCOCCCl,-0.9198
4049,B-4050,2-hexyloxyethanol,"InChI=1S/C8H18O2/c1-2-3-4-5-7-10-8-6-9/h9H,2-8H2,1H3",UPGSWASWQBLSKZ-UHFFFAOYSA-N,CCCCCCOCCO,-1.1694
4050,B-4051,"1,2-dibutyoxyethane","InChI=1S/C10H22O2/c1-3-5-7-11-9-10-12-8-6-4-2/h3-10H2,1-2H3",GDXHBFHOEYVPED-UHFFFAOYSA-N,CCCCOCCOCCCC,-1.9402
4051,B-4052,diethylene glycol dibutyl ether,"InChI=1S/C12H26O3/c1-3-5-7-13-9-11-15-12-10-14-8-6-4-2/h3-12H2,1-2H3",KZVBBTZJMSWGTK-UHFFFAOYSA-N,CCCCOCCOCCOCCCC,-1.8619999999999999
4052,B-4053,dimethyl ether,InChI=1S/C2H6O/c1-3-2/h1-2H3,LCGLNKUTAGEVQW-UHFFFAOYSA-N,COC,0.8844
4053,B-4054,tetrahydropyran,InChI=1S/C5H10O/c1-2-4-6-5-3-1/h1-5H2,DHXVGJBLRPWPCS-UHFFFAOYSA-N,C1CCOCC1,-0.031
4054,B-4055,di-n-butyl ether,"InChI=1S/C8H18O/c1-3-5-7-9-8-6-4-2/h3-8H2,1-2H3",DURPTKYDGMDSBL-UHFFFAOYSA-N,CCCCOCCCC,-2.6376
4055,B-4056,"1,2-diethoxyethane","InChI=1S/C6H14O2/c1-3-7-5-6-8-4-2/h3-6H2,1-2H3",LZDKZFUFMNSQCJ-UHFFFAOYSA-N,CCOCCOCC,-0.1498
4056,B-4057,methyl t-butyl ether,"InChI=1S/C5H12O/c1-5(2,3)6-4/h1-4H3",BZLVMXJERCGZMT-UHFFFAOYSA-N,COC(C)(C)C,-0.2377
4057,B-4058,ethrane [haloether],"InChI=1S/C3H2ClF5O/c4-1(5)3(8,9)10-2(6)7/h1-2H",JPGQOUSTVILISH-UHFFFAOYSA-N,FC(F)OC(F)(F)C(F)Cl,-1.5162
4058,B-4059,isoflurane,"InChI=1S/C3H2ClF5O/c4-1(3(7,8)9)10-2(5)6/h1-2H",PIWKPBJCKXDKJR-UHFFFAOYSA-N,FC(F)OC(Cl)C(F)(F)F,-1.6157
4059,B-4060,n-nitrosodiethylamine,"InChI=1S/C4H10N2O/c1-3-6(4-2)5-7/h3-4H2,1-2H3",WBNQDOYYEUMPFS-UHFFFAOYSA-N,CCN(CC)N=O,0.0161
4060,B-4061,diphenylnitrosamine,InChI=1S/C12H10N2O/c15-13-14(11-7-3-1-4-8-11)12-9-5-2-6-10-12/h1-10H,UBUCNCOMADRQHX-UHFFFAOYSA-N,O=NN(c1ccccc1)c2ccccc2,-3.7531
4061,B-4062,1-nitroso-2-naphthol,"InChI=1S/C10H7NO2/c12-9-6-5-7-3-1-2-4-8(7)10(9)11-13/h1-6,12H",YXAOOTNFFAQIPZ-UHFFFAOYSA-N,Oc1ccc2ccccc2c1N=O,-2.2385
4062,B-4063,2-nitroso-1-naphthol,"InChI=1S/C10H7NO2/c12-10-8-4-2-1-3-7(8)5-6-9(10)11-13/h1-6,12H",SYUYTOYKQOAVDW-UHFFFAOYSA-N,Oc1c(ccc2ccccc12)N=O,-2.5395
4063,B-4064,di-i-propylnitrosoamine,"InChI=1S/C6H14N2O/c1-5(2)8(7-9)6(3)4/h5-6H,1-4H3",AUIKJTGFPFLMFP-UHFFFAOYSA-N,CC(C)N(N=O)C(C)C,-1.0006
4064,B-4065,n-nitrosodipropylamine,"InChI=1S/C6H14N2O/c1-3-5-8(7-9)6-4-2/h3-6H2,1-2H3",YLKFDHTUAUWZPQ-UHFFFAOYSA-N,CCCN(CCC)N=O,-1.0006
4065,B-4066,n-nitrosodibutylamine,"InChI=1S/C8H18N2O/c1-3-5-7-10(9-11)8-6-4-2/h3-8H2,1-2H3",YGJHZCLPZAZIHH-UHFFFAOYSA-N,CCCCN(CCCC)N=O,-2.0955
4066,B-4067,n-nitrosoethyl-n-butylamine,"InChI=1S/C6H14N2O/c1-3-5-6-8(4-2)7-9/h3-6H2,1-2H3",ZGMCNGHHUQZNIH-UHFFFAOYSA-N,CCCCN(CC)N=O,-1.0354
4067,B-4068,n-nitroso-n-methylbutylamine,"InChI=1S/C5H12N2O/c1-3-4-5-7(2)6-8/h3-5H2,1-2H3",PKTSCJXWLVREKX-UHFFFAOYSA-N,CCCCN(C)N=O,-0.6996
4068,B-4069,n-methyl-n-nitrosoethamine,"InChI=1S/C3H8N2O/c1-3-5(2)4-6/h3H2,1-2H3",RTDCJKARQCRONF-UHFFFAOYSA-N,CCN(C)N=O,0.5321
4069,B-4070,biphenyl,InChI=1S/C12H10/c1-3-7-11(8-4-1)12-9-5-2-6-10-12/h1-10H,ZUOUZKKEUPVFJK-UHFFFAOYSA-N,c1ccc(cc1)c2ccccc2,-4.3468
4070,B-4071,4-bromobiphenyl,InChI=1S/C12H9Br/c13-12-8-6-11(7-9-12)10-4-2-1-3-5-10/h1-9H,PKJBWOWQJHHAHG-UHFFFAOYSA-N,Brc1ccc(cc1)c2ccccc2,-5.5526
4071,B-4072,"4-methyl-1,1'-biphenyl","InChI=1S/C13H12/c1-11-7-9-13(10-8-11)12-5-3-2-4-6-12/h2-10H,1H3",ZZLCFHIKESPLTH-UHFFFAOYSA-N,Cc1ccc(cc1)c2ccccc2,-4.6185
4072,B-4073,"3,3'-dichlorobiphenyl",InChI=1S/C12H8Cl2/c13-11-5-1-3-9(7-11)10-4-2-6-12(14)8-10/h1-8H,KTXUOWUHFLBZPW-UHFFFAOYSA-N,Clc1cccc(c1)c2cccc(Cl)c2,-5.7983
4073,B-4074,"4,4'-dichlorobiphenyl",InChI=1S/C12H8Cl2/c13-11-5-1-9(2-6-11)10-3-7-12(14)8-4-10/h1-8H,YTBRNEUEFCNVHC-UHFFFAOYSA-N,Clc1ccc(cc1)c2ccc(Cl)cc2,-6.5561
4074,B-4075,decachlorobiphenyl,InChI=1S/C12Cl10/c13-3-1(4(14)8(18)11(21)7(3)17)2-5(15)9(19)12(22)10(20)6(2)16,ONXPZLFXDMAPRO-UHFFFAOYSA-N,Clc1c(Cl)c(Cl)c(c(Cl)c1Cl)c2c(Cl)c(Cl)c(Cl)c(Cl)c2Cl,-10.8268
4075,B-4076,2-chlorobiphenyl,InChI=1S/C12H9Cl/c13-12-9-5-4-8-11(12)10-6-2-1-3-7-10/h1-9H,LAXBNTIAOJWAOP-UHFFFAOYSA-N,Clc1ccccc1c2ccccc2,-4.5917
4076,B-4077,3-chlorobiphenyl,InChI=1S/C12H9Cl/c13-12-8-4-7-11(9-12)10-5-2-1-3-6-10/h1-9H,NMWSKOLWZZWHPL-UHFFFAOYSA-N,Clc1cccc(c1)c2ccccc2,-4.7158
4077,B-4078,4-chlorobiphenyl,InChI=1S/C12H9Cl/c13-12-8-6-11(7-9-12)10-4-2-1-3-5-10/h1-9H,FPWNLURCHDRMHC-UHFFFAOYSA-N,Clc1ccc(cc1)c2ccccc2,-5.1486
4078,B-4079,"2,2',3,3',5,5',6,6'-octachlorobiphenyl",InChI=1S/C12H2Cl8/c13-3-1-4(14)10(18)7(9(3)17)8-11(19)5(15)2-6(16)12(8)20/h1-2H,JPOPEORRMSDUIP-UHFFFAOYSA-N,Clc1cc(Cl)c(Cl)c(c1Cl)c2c(Cl)c(Cl)cc(Cl)c2Cl,-9.4659
4079,B-4080,"2,2',4,4'-tetrachlorobiphenyl",InChI=1S/C12H6Cl4/c13-7-1-3-9(11(15)5-7)10-4-2-8(14)6-12(10)16/h1-6H,QORAVNMWUNPXAO-UHFFFAOYSA-N,Clc1ccc(c(Cl)c1)c2ccc(Cl)cc2Cl,-6.7322
4080,B-4081,"3,4-dichlorobiphenyl",InChI=1S/C12H8Cl2/c13-11-7-6-10(8-12(11)14)9-4-2-1-3-5-9/h1-8H,ZGHQUYZPMWMLBM-UHFFFAOYSA-N,Clc1ccc(cc1Cl)c2ccccc2,-6.3899
4081,B-4082,"2,4,4'-pcb",InChI=1S/C12H7Cl3/c13-9-3-1-8(2-4-9)11-6-5-10(14)7-12(11)15/h1-7H,BZTYNSQSZHARAZ-UHFFFAOYSA-N,Clc1ccc(cc1)c2ccc(Cl)cc2Cl,-5.9795
4082,B-4083,"2,2'-dichlorobiphenyl",InChI=1S/C12H8Cl2/c13-11-7-3-1-5-9(11)10-6-2-4-8-12(10)14/h1-8H,JAYCNKDKIKZTAF-UHFFFAOYSA-N,Clc1ccccc1c2ccccc2Cl,-5.0813
4083,B-4084,"2,4,5-pcb",InChI=1S/C12H7Cl3/c13-10-7-12(15)11(14)6-9(10)8-4-2-1-3-5-8/h1-7H,VGVIKVCCUATMNG-UHFFFAOYSA-N,Clc1cc(Cl)c(cc1Cl)c2ccccc2,-6.1987
4084,B-4085,"2,2',6,6'-pcb",InChI=1S/C12H6Cl4/c13-7-3-1-4-8(14)11(7)12-9(15)5-2-6-10(12)16/h1-6H,PXAGFNRKXSYIHU-UHFFFAOYSA-N,Clc1cccc(Cl)c1c2c(Cl)cccc2Cl,-7.3898
4085,B-4086,"2,3-dichlorobiphenyl",InChI=1S/C12H8Cl2/c13-11-8-4-7-10(12(11)14)9-5-2-1-3-6-9/h1-8H,XOMKZKJEJBZBJJ-UHFFFAOYSA-N,Clc1cccc(c2ccccc2)c1Cl,-5.3498
4086,B-4087,"2,4',5-trichlorobiphenyl",InChI=1S/C12H7Cl3/c13-9-3-1-8(2-4-9)11-7-10(14)5-6-12(11)15/h1-7H,VAHKBZSAUKPEOV-UHFFFAOYSA-N,Clc1ccc(cc1)c2cc(Cl)ccc2Cl,-6.2555
4087,B-4088,"2,3,4,5,6-pcb",InChI=1S/C12H5Cl5/c13-8-7(6-4-2-1-3-5-6)9(14)11(16)12(17)10(8)15/h1-5H,GGMPTLAAIUQMIE-UHFFFAOYSA-N,Clc1c(Cl)c(Cl)c(c2ccccc2)c(Cl)c1Cl,-7.9107
4088,B-4089,"2,3'-pcb",InChI=1S/C12H8Cl2/c13-10-5-3-4-9(8-10)11-6-1-2-7-12(11)14/h1-8H,ZHBBDTRJIVXKEX-UHFFFAOYSA-N,Clc1cccc(c1)c2ccccc2Cl,-5.5851
4089,B-4090,"2',3,4,4',5'-pcb",InChI=1S/C12H5Cl5/c13-8-2-1-6(3-10(8)15)7-4-11(16)12(17)5-9(7)14/h1-5H,IUTPYMGCWINGEY-UHFFFAOYSA-N,Clc1ccc(cc1Cl)c2cc(Cl)c(Cl)cc2Cl,-7.3867
4090,B-4091,"2,3',4,4'-tetrachlorobiphenyl",InChI=1S/C12H6Cl4/c13-8-2-3-9(11(15)6-8)7-1-4-10(14)12(16)5-7/h1-6H,RKLLTEAEZIJBAU-UHFFFAOYSA-N,Clc1ccc(c(Cl)c1)c2ccc(Cl)c(Cl)c2,-6.8995
4091,B-4092,"2,3',4',5-pcb",InChI=1S/C12H6Cl4/c13-8-2-4-10(14)9(6-8)7-1-3-11(15)12(16)5-7/h1-6H,KENZYIHFBRWMOD-UHFFFAOYSA-N,Clc1ccc(Cl)c(c1)c2ccc(Cl)c(Cl)c2,-6.8526
4092,B-4093,"2,4,4',5-pcb",InChI=1S/C12H6Cl4/c13-8-3-1-7(2-4-8)9-5-11(15)12(16)6-10(9)14/h1-6H,TULCXSBAPHCWCF-UHFFFAOYSA-N,Clc1ccc(cc1)c2cc(Cl)c(Cl)cc2Cl,-7.7699
4093,B-4094,"2,3,4,4'-pcb",InChI=1S/C12H6Cl4/c13-8-3-1-7(2-4-8)9-5-6-10(14)12(16)11(9)15/h1-6H,XLDBTRJKXLKYTC-UHFFFAOYSA-N,Clc1ccc(cc1)c2ccc(Cl)c(Cl)c2Cl,-6.8754
4094,B-4095,"2,6-dichlorobiphenyl",InChI=1S/C12H8Cl2/c13-10-7-4-8-11(14)12(10)9-5-2-1-3-6-9/h1-8H,IYZWUWBAFUBNCH-UHFFFAOYSA-N,Clc1cccc(Cl)c1c2ccccc2,-4.9665
4095,B-4096,"2,4-dichlorobiphenyl",InChI=1S/C12H8Cl2/c13-10-6-7-11(12(14)8-10)9-4-2-1-3-5-9/h1-8H,WEJZHZJJXPXXMU-UHFFFAOYSA-N,Clc1ccc(c(Cl)c1)c2ccccc2,-5.2878
4096,B-4097,"2,3,4,5-pcb",InChI=1S/C12H6Cl4/c13-9-6-8(7-4-2-1-3-5-7)10(14)12(16)11(9)15/h1-6H,HLQDGCWIOSOMDP-UHFFFAOYSA-N,Clc1cc(c2ccccc2)c(Cl)c(Cl)c1Cl,-7.3192
4097,B-4098,"2,2',4,4',6,6'-pcb",InChI=1S/C12H4Cl6/c13-5-1-7(15)11(8(16)2-5)12-9(17)3-6(14)4-10(12)18/h1-4H,ICOAEPDGFWLUTI-UHFFFAOYSA-N,Clc1cc(Cl)c(c(Cl)c1)c2c(Cl)cc(Cl)cc2Cl,-8.9467
4098,B-4099,"2,5-dichlorobiphenyl",InChI=1S/C12H8Cl2/c13-10-6-7-12(14)11(8-10)9-4-2-1-3-5-9/h1-8H,KKQWHYGECTYFIA-UHFFFAOYSA-N,Clc1ccc(Cl)c(c1)c2ccccc2,-5.2993
4099,B-4100,"2,4'-dichlorobiphenyl",InChI=1S/C12H8Cl2/c13-10-7-5-9(6-8-10)11-3-1-2-4-12(11)14/h1-8H,UFNIBRDIUNVOMX-UHFFFAOYSA-N,Clc1ccc(cc1)c2ccccc2Cl,-5.2803
4100,B-4101,"2,4,5,2',4',5'-pcb",InChI=1S/C12H4Cl6/c13-7-3-11(17)9(15)1-5(7)6-2-10(16)12(18)4-8(6)14/h1-4H,MVWHGTYKUMDIHL-UHFFFAOYSA-N,Clc1cc(Cl)c(cc1Cl)c2cc(Cl)c(Cl)cc2Cl,-8.5796
4101,B-4102,"2,2',3,4,4',5'-hexachlorobiphenyl",InChI=1S/C12H4Cl6/c13-7-2-1-5(11(17)12(7)18)6-3-9(15)10(16)4-8(6)14/h1-4H,RPUMZMSNLZHIGZ-UHFFFAOYSA-N,Clc1ccc(c(Cl)c1Cl)c2cc(Cl)c(Cl)cc2Cl,-8.3813
4102,B-4103,"2,4,6-pcb",InChI=1S/C12H7Cl3/c13-9-6-10(14)12(11(15)7-9)8-4-2-1-3-5-8/h1-7H,MTLMVEWEYZFYTH-UHFFFAOYSA-N,Clc1cc(Cl)c(c(Cl)c1)c2ccccc2,-6.0095
4103,B-4104,"2,2',5,5'-pcb",InChI=1S/C12H6Cl4/c13-7-1-3-11(15)9(5-7)10-6-8(14)2-4-12(10)16/h1-6H,HCWZEPKLWVAEOV-UHFFFAOYSA-N,Clc1ccc(Cl)c(c1)c2cc(Cl)ccc2Cl,-7.2807
4104,B-4105,"2,2',3,4,4',5-pcb",InChI=1S/C12H4Cl6/c13-5-1-2-6(8(14)3-5)7-4-9(15)11(17)12(18)10(7)16/h1-4H,CKLLRBPBZLTGDJ-UHFFFAOYSA-N,Clc1ccc(c(Cl)c1)c2cc(Cl)c(Cl)c(Cl)c2Cl,-8.5199
4105,B-4106,hexabromobiphenyl,InChI=1S/C12H4Br6/c13-7-3-1-5(9(15)11(7)17)6-2-4-8(14)12(18)10(6)16/h1-4H,PTJQVJQAZSLKJO-UHFFFAOYSA-N,Brc1ccc(c(Br)c1Br)c2ccc(Br)c(Br)c2Br,-7.7563
4106,B-4107,"2,2',5-trichlorobiphenyl",InChI=1S/C12H7Cl3/c13-8-5-6-12(15)10(7-8)9-3-1-2-4-11(9)14/h1-7H,DCMURXAZTZQAFB-UHFFFAOYSA-N,Clc1ccc(Cl)c(c1)c2ccccc2Cl,-5.8088
4107,B-4108,"2,2',4-trichlorobiphenyl",InChI=1S/C12H7Cl3/c13-8-5-6-10(12(15)7-8)9-3-1-2-4-11(9)14/h1-7H,YKKYCYQDUUXNLN-UHFFFAOYSA-N,Clc1ccc(c(Cl)c1)c2ccccc2Cl,-6.4902
4108,B-4109,"2,4,5,2',5'-pcb",InChI=1S/C12H5Cl5/c13-6-1-2-9(14)7(3-6)8-4-11(16)12(17)5-10(8)15/h1-5H,LAHWLEDBADHJGA-UHFFFAOYSA-N,Clc1ccc(Cl)c(c1)c2cc(Cl)c(Cl)cc2Cl,-7.3263
4109,B-4110,"2,2',3,5',6-pcb",InChI=1S/C12H5Cl5/c13-6-1-2-8(14)7(5-6)11-9(15)3-4-10(16)12(11)17/h1-5H,GXNNLIMMEXHBKV-UHFFFAOYSA-N,Clc1ccc(Cl)c(c1)c2c(Cl)ccc(Cl)c2Cl,-7.1895
4110,B-4111,"2,2',4,4',5-pentachlorobiphenyl",InChI=1S/C12H5Cl5/c13-6-1-2-7(9(14)3-6)8-4-11(16)12(17)5-10(8)15/h1-5H,LMQJBFRGXHMNOX-UHFFFAOYSA-N,Clc1ccc(c(Cl)c1)c2cc(Cl)c(Cl)cc2Cl,-7.9503
4111,B-4112,"2,2',3,4,5'-pentachlorobiphenyl",InChI=1S/C12H5Cl5/c13-6-1-3-9(14)8(5-6)7-2-4-10(15)12(17)11(7)16/h1-5H,OPKYDBFRKPQCBS-UHFFFAOYSA-N,Clc1ccc(Cl)c(c1)c2ccc(Cl)c(Cl)c2Cl,-7.0455
4112,B-4113,"2,3,3',4',6-pentachlorobiphenyl",InChI=1S/C12H5Cl5/c13-7-2-1-6(5-10(7)16)11-8(14)3-4-9(15)12(11)17/h1-5H,ARXHIJMGSIYYRZ-UHFFFAOYSA-N,Clc1ccc(cc1Cl)c2c(Cl)ccc(Cl)c2Cl,-7.6499
4113,B-4114,"2,2',3,3',4,4'-pcb",InChI=1S/C12H4Cl6/c13-7-3-1-5(9(15)11(7)17)6-2-4-8(14)12(18)10(6)16/h1-4H,BTAGRXWGMYTPBY-UHFFFAOYSA-N,Clc1ccc(c(Cl)c1Cl)c2ccc(Cl)c(Cl)c2Cl,-9.0133
4114,B-4115,"2,2',3,3',6,6'-hexachlorobiphenyl",InChI=1S/C12H4Cl6/c13-5-1-3-7(15)11(17)9(5)10-6(14)2-4-8(16)12(10)18/h1-4H,FZFUUSROAHKTTF-UHFFFAOYSA-N,Clc1ccc(Cl)c(c1Cl)c2c(Cl)ccc(Cl)c2Cl,-7.9032
4115,B-4116,"2,2',6-pcb",InChI=1S/C12H7Cl3/c13-9-5-2-1-4-8(9)12-10(14)6-3-7-11(12)15/h1-7H,MVXIJRBBCDLNLX-UHFFFAOYSA-N,Clc1ccccc1c2c(Cl)cccc2Cl,-5.9003
4116,B-4117,"2,4',6-trichlorobiphenyl",InChI=1S/C12H7Cl3/c13-9-6-4-8(5-7-9)12-10(14)2-1-3-11(12)15/h1-7H,IHIDFKLAWYPTKB-UHFFFAOYSA-N,Clc1ccc(cc1)c2c(Cl)cccc2Cl,-6.2095
4117,B-4118,"2,2',3'-pcb",InChI=1S/C12H7Cl3/c13-10-6-2-1-4-8(10)9-5-3-7-11(14)12(9)15/h1-7H,XVIZMMSINIOIQP-UHFFFAOYSA-N,Clc1cccc(c1Cl)c2ccccc2Cl,-5.944
4118,B-4119,"2,3',5-pcb",InChI=1S/C12H7Cl3/c13-9-3-1-2-8(6-9)11-7-10(14)4-5-12(11)15/h1-7H,ONNCPBRWFSKDMQ-UHFFFAOYSA-N,Clc1cccc(c1)c2cc(Cl)ccc2Cl,-6.0077
4119,B-4120,"2,3,4'-pcb",InChI=1S/C12H7Cl3/c13-9-6-4-8(5-7-9)10-2-1-3-11(14)12(10)15/h1-7H,ZMHWQAHZKUPENF-UHFFFAOYSA-N,Clc1ccc(cc1)c2cccc(Cl)c2Cl,-6.2586
4120,B-4121,"2',3,4-trichlorobiphenyl",InChI=1S/C12H7Cl3/c13-10-4-2-1-3-9(10)8-5-6-11(14)12(15)7-8/h1-7H,RIMXLXBUOQMDHV-UHFFFAOYSA-N,Clc1ccc(cc1Cl)c2ccccc2Cl,-6.287000000000001
4121,B-4122,"3,4,4'-trichlorobiphenyl",InChI=1S/C12H7Cl3/c13-10-4-1-8(2-5-10)9-3-6-11(14)12(15)7-9/h1-7H,YZANRISAORXTHU-UHFFFAOYSA-N,Clc1ccc(cc1)c2ccc(Cl)c(Cl)c2,-6.5541
4122,B-4123,"2,2',3,3'-tetrachlorobiphenyl",InChI=1S/C12H6Cl4/c13-9-5-1-3-7(11(9)15)8-4-2-6-10(14)12(8)16/h1-6H,VTLYHLREPCPDKX-UHFFFAOYSA-N,Clc1cccc(c1Cl)c2cccc(Cl)c2Cl,-7.2722
4123,B-4124,"2,2',3,5'-tetrachlorobiphenyl",InChI=1S/C12H6Cl4/c13-7-4-5-10(14)9(6-7)8-2-1-3-11(15)12(8)16/h1-6H,ALDJIKXAHSDLLB-UHFFFAOYSA-N,Clc1ccc(Cl)c(c1)c2cccc(Cl)c2Cl,-6.4654
4124,B-4125,"2,2',4,5'-tetrachlorobiphenyl",InChI=1S/C12H6Cl4/c13-7-2-4-11(15)10(5-7)9-3-1-8(14)6-12(9)16/h1-6H,ZWPVHELAQPIZHO-UHFFFAOYSA-N,Clc1ccc(c(Cl)c1)c2cc(Cl)ccc2Cl,-6.5727