,ID,Name,InChI,InChIKey,SMILES,Solubility
107,B-108,cevadine,"InChI=1S/C32H49NO9/c1-6-18(3)25(35)41-24-11-12-26(4)19-8-9-20-28(37)13-23(34)31(39)21(29(28,38)16-30(20,26)42-32(19,24)40)15-33-14-17(2)7-10-22(33)27(31,5)36/h6,17,19-24,34,36-40H,7-16H2,1-5H3/b18-6-/t17-,19-,20-,21-,22-,23-,24-,26-,27+,28+,29+,30+,31-,32-/m0/s1",DBUCFOVFALNEOO-HWBIYQLFSA-N,C/C=C(/C)C(=O)O[C@H]1CC[C@@]2(C)[C@@H]3CC[C@H]4[C@]5(O)C[C@H](O)[C@@]6(O)[C@@H](CN7C[C@@H](C)CC[C@H]7[C@@]6(C)O)[C@]5(O)C[C@]24O[C@]13O,-3.0163
108,B-109,dichlorvos,"InChI=1S/C4H7Cl2O4P/c1-8-11(7,9-2)10-3-4(5)6/h3H,1-2H3",OEBRKCOSUFCWJD-UHFFFAOYSA-N,CO[P](=O)(OC)OC=C(Cl)Cl,-1.4413
109,B-110,"fluoroacetic acid, sodium salt","InChI=1S/C2H3FO2.Na/c3-1-2(4)5;/h1H2,(H,4,5);/q;+1/p-1",JGFYQVQAXANWJU-UHFFFAOYSA-M,[Na+].[O-]C(=O)CF,1.0452
110,B-111,lactose,"InChI=1S/C12H22O11/c13-1-3-5(15)6(16)9(19)12(22-3)23-10-4(2-14)21-11(20)8(18)7(10)17/h3-20H,1-2H2",GUBGYTABKSRVRQ-UHFFFAOYSA-N,OCC1OC(OC2C(O)C(O)C(O)OC2CO)C(O)C(O)C1O,-0.2444
111,B-112,arecoline,"InChI=1S/C8H13NO2/c1-9-5-3-4-7(6-9)8(10)11-2/h4H,3,5-6H2,1-2H3",HJJPJSXJAXAIPN-UHFFFAOYSA-N,COC(=O)C1=CCCN(C)C1,0.8091
112,B-113,phenylalanine,"InChI=1S/C9H11NO2/c10-8(9(11)12)6-7-4-2-1-3-5-7/h1-5,8H,6,10H2,(H,11,12)",COLNVLDHVKWLRT-UHFFFAOYSA-N,NC(Cc1ccccc1)C(O)=O,-0.7882
113,B-114,n-methyl o-(3-isopropylphenyl)carbamate,"InChI=1S/C11H15NO2/c1-8(2)9-5-4-6-10(7-9)14-11(13)12-3/h4-8H,1-3H3,(H,12,13)",GYKXQTKSWLAUIT-UHFFFAOYSA-N,CNC(=O)Oc1cccc(c1)C(C)C,-3.3567
114,B-115,"edta, sodium salt","InChI=1S/C10H16N2O8.4Na/c13-7(14)3-11(4-8(15)16)1-2-12(5-9(17)18)6-10(19)20;;;;/h1-6H2,(H,13,14)(H,15,16)(H,17,18)(H,19,20);;;;/q;4*+1/p-4",UEUXEKPTXMALOB-UHFFFAOYSA-J,[Na+].[Na+].[Na+].[Na+].[O-]C(=O)CN(CCN(CC([O-])=O)CC([O-])=O)CC([O-])=O,0.11900000000000001
115,B-116,ethanol,"InChI=1S/C2H6O/c1-2-3/h3H,2H2,1H3",LFQSCWFLJHTTHZ-UHFFFAOYSA-N,CCO,1.3366
116,B-117,formic acid,"InChI=1S/CH2O2/c2-1-3/h1H,(H,2,3)",BDAGIHXWWSANSR-UHFFFAOYSA-N,OC=O,1.337
117,B-118,acetic acid,"InChI=1S/C2H4O2/c1-2(3)4/h1H3,(H,3,4)",QTBSBXVTEAMEQO-UHFFFAOYSA-N,CC(O)=O,1.2215
118,B-119,morphine sulfate,"InChI=1S/2C17H19NO3.H2O4S/c2*1-18-7-6-17-10-3-5-13(20)16(17)21-15-12(19)4-2-9(14(15)17)8-11(10)18;1-5(2,3)4/h2*2-5,10-11,13,16,19-20H,6-8H2,1H3;(H2,1,2,3,4)/t2*10-,11+,13-,16?,17-;/m11./s1",USAHOPJHPJHUNS-TXCKYYANSA-N,C[NH+]1CC[C@@]23C4Oc5c(O)ccc(C[C@H]1[C@H]2C=C[C@H]4O)c35.C[NH+]6CC[C@@]78C9Oc%10c(O)ccc(C[C@H]6[C@H]7C=C[C@H]9O)c8%10.[O-][S]([O-])(=O)=O,-1.0157
119,B-120,mebutamate,"InChI=1S/C10H20N2O4/c1-4-7(2)10(3,5-15-8(11)13)6-16-9(12)14/h7H,4-6H2,1-3H3,(H2,11,13)(H2,12,14)",LEROTMJVBFSIMP-UHFFFAOYSA-N,CCC(C)C(C)(COC(N)=O)COC(N)=O,-2.366
120,B-121,colchicine,"InChI=1S/C22H25NO6/c1-12(24)23-16-8-6-13-10-19(27-3)21(28-4)22(29-5)20(13)14-7-9-18(26-2)17(25)11-15(14)16/h7,9-11,16H,6,8H2,1-5H3,(H,23,24)/t16-/m0/s1",IAKHMKGGTNLKSZ-INIZCTEOSA-N,COC1=CC=C2C(=CC1=O)[C@H](CCc3cc(OC)c(OC)c(OC)c23)NC(C)=O,-0.9482
121,B-122,pyridoxal hydrochloride,"InChI=1S/C8H9NO3.ClH/c1-5-8(12)7(4-11)6(3-10)2-9-5;/h2,4,10,12H,3H2,1H3;1H",FCHXJFJNDJXENQ-UHFFFAOYSA-N,[H+].[Cl-].Cc1ncc(CO)c(C=O)c1O,0.3901
122,B-123,"l-methionine, n-acetyl-","InChI=1S/C7H13NO3S/c1-5(9)8-6(7(10)11)3-4-12-2/h6H,3-4H2,1-2H3,(H,8,9)(H,10,11)",XUYPXLNMDZIRQH-UHFFFAOYSA-N,CSCCC(NC(C)=O)C(O)=O,0.2055
123,B-124,"3,5-diiodotyrosine","InChI=1S/C9H9I2NO3/c10-5-1-4(2-6(11)8(5)13)3-7(12)9(14)15/h1-2,7,13H,3,12H2,(H,14,15)/t7-/m0/s1",NYPYHUZRZVSYKL-ZETCQYMHSA-N,N[C@@H](Cc1cc(I)c(O)c(I)c1)C(O)=O,-2.8583
124,B-125,o-phenanthroline,InChI=1S/C12H8N2/c1-3-9-5-6-10-4-2-8-14-12(10)11(9)13-7-1/h1-8H,DGEZNRSVGBDHLK-UHFFFAOYSA-N,c1cnc2c(c1)ccc3cccnc23,-1.8259999999999998
125,B-126,pyridoxal,"InChI=1S/C8H9NO3/c1-5-8(12)7(4-11)6(3-10)2-9-5/h2,4,10,12H,3H2,1H3",RADKZDMFGJYCBB-UHFFFAOYSA-N,Cc1ncc(CO)c(C=O)c1O,0.4758
126,B-127,nitrofurantoin,"InChI=1S/C8H6N4O5/c13-6-4-11(8(14)10-6)9-3-5-1-2-7(17-5)12(15)16/h1-3H,4H2,(H,10,13,14)/b9-3+",NXFQHRVNIOXGAQ-YCRREMRBSA-N,[O-][N+](=O)c1oc(cc1)/C=N/N2CC(=O)NC2=O,-3.4765
127,B-128,nihydrazone,"InChI=1S/C7H7N3O4/c1-5(11)9-8-4-6-2-3-7(14-6)10(12)13/h2-4H,1H3,(H,9,11)/b8-4+",ACFHHZJOAUZSJU-XBXARRHUSA-N,CC(=O)N/N=C/c1oc(cc1)[N+]([O-])=O,-2.5958
128,B-129,methanol,"InChI=1S/CH4O/c1-2/h2H,1H3",OKKJLVBELUTLKV-UHFFFAOYSA-N,CO,1.4943
129,B-130,isopropanol,"InChI=1S/C3H8O/c1-3(2)4/h3-4H,1-2H3",KFZMGEQAYNKOFK-UHFFFAOYSA-N,CC(C)O,1.2211
130,B-131,acetone,InChI=1S/C3H6O/c1-3(2)4/h1-2H3,CSCPPACGZOOCGX-UHFFFAOYSA-N,CC(C)=O,1.236
131,B-132,dimethyl sulfoxide,InChI=1S/C2H6OS/c1-4(2)3/h1-2H3,IAZDPXIOMUYVGZ-UHFFFAOYSA-N,C[S](C)=O,1.1072
133,B-134,mercaptoacetic acid,"InChI=1S/C2H4O2S/c3-2(4)1-5/h5H,1H2,(H,3,4)",CWERGRDVMFNCDR-UHFFFAOYSA-N,OC(=O)CS,1.0357
134,B-135,norethindrone,"InChI=1S/C20H26O2/c1-3-20(22)11-9-18-17-6-4-13-12-14(21)5-7-15(13)16(17)8-10-19(18,20)2/h1,12,15-18,22H,4-11H2,2H3/t15-,16+,17+,18-,19-,20-/m0/s1",VIKNJXKGJWUCNN-XGXHKTLJSA-N,C[C@]12CC[C@H]3[C@@H](CCC4=CC(=O)CC[C@H]34)[C@@H]1CC[C@@]2(O)C#C,-4.6271
135,B-136,sulfadiazine,"InChI=1S/C10H10N4O2S/c11-8-2-4-9(5-3-8)17(15,16)14-10-12-6-1-7-13-10/h1-7H,11H2,(H,12,13,14)",SEEPANYCNGTZFQ-UHFFFAOYSA-N,Nc1ccc(cc1)[S](=O)(=O)Nc2ncccn2,-3.5119
136,B-137,hypoxanthine,"InChI=1S/C5H4N4O/c10-5-3-4(7-1-6-3)8-2-9-5/h1-2H,(H2,6,7,8,9,10)",FDGQSTZJBFJUBT-UHFFFAOYSA-N,O=C1N=CNc2nc[nH]c12,-2.2888
137,B-138,ampicillin,"InChI=1S/C16H19N3O4S/c1-16(2)11(15(22)23)19-13(21)10(14(19)24-16)18-12(20)9(17)8-6-4-3-5-7-8/h3-7,9-11,14H,17H2,1-2H3,(H,18,20)(H,22,23)/t9-,10-,11+,14-/m1/s1",AVKUERGKIZMTKX-NJBDSQKTSA-N,CC1(C)S[C@@H]2[C@H](NC(=O)[C@H](N)c3ccccc3)C(=O)N2[C@H]1C(O)=O,-1.5390000000000001
138,B-139,mannitol,"InChI=1S/C6H14O6/c7-1-3(9)5(11)6(12)4(10)2-8/h3-12H,1-2H2",FBPFZTCFMRRESA-UHFFFAOYSA-N,OCC(O)C(O)C(O)C(O)CO,0.0746
139,B-140,maltose,"InChI=1S/C12H22O11/c13-1-3-5(15)6(16)9(19)12(22-3)23-10-4(2-14)21-11(20)8(18)7(10)17/h3-20H,1-2H2",GUBGYTABKSRVRQ-UHFFFAOYSA-N,OCC1OC(OC2C(O)C(O)C(O)OC2CO)C(O)C(O)C1O,0.3577
140,B-141,uric acid,"InChI=1S/C5H4N4O3/c10-3-1-2(7-4(11)6-1)8-5(12)9-3/h(H4,6,7,8,9,10,11,12)",LEHOTFFKMJEONL-UHFFFAOYSA-N,O=C1NC(=O)C2=C(N1)NC(=O)N2,-3.4526
141,B-142,hexachlorophene,"InChI=1S/C13H6Cl6O2/c14-6-2-8(16)12(20)4(10(6)18)1-5-11(19)7(15)3-9(17)13(5)21/h2-3,20-21H,1H2",ACGUYXCXAPNIKK-UHFFFAOYSA-N,Oc1c(Cl)cc(Cl)c(Cl)c1Cc2c(O)c(Cl)cc(Cl)c2Cl,-3.4634
142,B-143,"1-fluoro-2,4-dinitrobenzene",InChI=1S/C6H3FN2O4/c7-5-2-1-4(8(10)11)3-6(5)9(12)13/h1-3H,LOTKRQAVGJMPNV-UHFFFAOYSA-N,[O-][N+](=O)c1ccc(F)c(c1)[N+]([O-])=O,-2.6677
143,B-144,asparagine,"InChI=1S/C4H8N2O3/c5-2(4(8)9)1-3(6)7/h2H,1,5H2,(H2,6,7)(H,8,9)",DCXYFEDJOCDNAF-UHFFFAOYSA-N,NC(CC(N)=O)C(O)=O,-0.6525
144,B-145,deferoxamine,"InChI=1S/C25H48N6O8/c1-21(32)29(37)18-9-3-6-16-27-22(33)12-14-25(36)31(39)20-10-4-7-17-28-23(34)11-13-24(35)30(38)19-8-2-5-15-26/h37-39H,2-20,26H2,1H3,(H,27,33)(H,28,34)",UBQYURCVBFRUQT-UHFFFAOYSA-N,CC(=O)N(O)CCCCCNC(=O)CCC(=O)N(O)CCCCCNC(=O)CCC(=O)N(O)CCCCCN,-1.6695
145,B-146,histidine,"InChI=1S/C6H9N3O2/c7-5(6(10)11)1-4-2-8-3-9-4/h2-3,5H,1,7H2,(H,8,9)(H,10,11)",HNDVDQJCIGZPNO-UHFFFAOYSA-N,NC(Cc1[nH]cnc1)C(O)=O,-0.5314
146,B-147,1-propanol,"InChI=1S/C3H8O/c1-2-3-4/h4H,2-3H2,1H3",BDERNNFJNOPAEC-UHFFFAOYSA-N,CCCO,1.2211
147,B-148,cytosine,"InChI=1S/C4H5N3O/c5-3-1-2-6-4(8)7-3/h1-2H,(H3,5,6,7,8)",OPTASPLRGRRNAP-UHFFFAOYSA-N,NC1=CC=NC(=O)N1,-1.1426
149,B-150,sodium lactate,"InChI=1S/C3H6O3.Na/c1-2(4)3(5)6;/h2,4H,1H3,(H,5,6);/q;+1/p-1",NGSFWBMYFKHRBD-UHFFFAOYSA-M,[Na+].CC(O)C([O-])=O,0.9505
150,B-151,threonine(l),"InChI=1S/C4H9NO3/c1-2(6)3(5)4(7)8/h2-3,6H,5H2,1H3,(H,7,8)",AYFVYJQAPQTCCC-UHFFFAOYSA-N,CC(O)C(N)C(O)=O,-0.0892
151,B-152,endrin,"InChI=1S/C12H8Cl6O/c13-8-9(14)11(16)5-3-1-2(6-7(3)19-6)4(5)10(8,15)12(11,17)18/h2-7H,1H2",DFBKLUNHFCTMDC-UHFFFAOYSA-N,ClC1=C(Cl)C2(Cl)C3C4CC(C5OC45)C3C1(Cl)C2(Cl)Cl,-6.1829
152,B-153,methoxychlor,"InChI=1S/C16H15Cl3O2/c1-20-13-7-3-11(4-8-13)15(16(17,18)19)12-5-9-14(21-2)10-6-12/h3-10,15H,1-2H3",IAKOZHOLGAGEJT-UHFFFAOYSA-N,COc1ccc(cc1)C(c2ccc(OC)cc2)C(Cl)(Cl)Cl,-6.5386
153,B-154,alizarine,"InChI=1S/C14H8O4/c15-10-6-5-9-11(14(10)18)13(17)8-4-2-1-3-7(8)12(9)16/h1-6,15,18H",RGCKGOZRHPZPFP-UHFFFAOYSA-N,Oc1ccc2C(=O)c3ccccc3C(=O)c2c1O,-2.7785
154,B-155,"1,1-dichloro-2,2-bis(ethylphenyl)ethane","InChI=1S/C18H20Cl2/c1-3-13-5-9-15(10-6-13)17(18(19)20)16-11-7-14(4-2)8-12-16/h5-12,17-18H,3-4H2,1-2H3",QFMDFTQOJHFVNR-UHFFFAOYSA-N,CCc1ccc(cc1)C(C(Cl)Cl)c2ccc(CC)cc2,-6.4875
155,B-156,tryptophan,"InChI=1S/C11H12N2O2/c12-9(11(14)15)5-7-6-13-10-4-2-1-3-8(7)10/h1-4,6,9,13H,5,12H2,(H,14,15)",QIVBCDIJIAJPQS-UHFFFAOYSA-N,NC(Cc1c[nH]c2ccccc12)C(O)=O,-1.183
156,B-157,adenine,"InChI=1S/C5H5N5/c6-4-3-5(9-1-7-3)10-2-8-4/h1-2H,(H3,6,7,8,9,10)",GFFGJBXGBJISGV-UHFFFAOYSA-N,Nc1ncnc2nc[nH]c12,-2.1179
157,B-158,iso-leucine,"InChI=1S/C6H13NO2/c1-3-4(2)5(7)6(8)9/h4-5H,3,7H2,1-2H3,(H,8,9)/t4-,5-/m0/s1",AGPKZVBTJJNPAG-WHFBIAKZSA-N,CC[C@H](C)[C@H](N)C(O)=O,-0.5813
158,B-159,bendroflumethiazide,"InChI=1S/C15H14F3N3O4S2/c16-15(17,18)10-7-11-13(8-12(10)26(19,22)23)27(24,25)21-14(20-11)6-9-4-2-1-3-5-9/h1-5,7-8,14,20-21H,6H2,(H2,19,22,23)",HDWIHXWEUNVBIY-UHFFFAOYSA-N,N[S](=O)(=O)c1cc2c(NC(Cc3ccccc3)N[S]2(=O)=O)cc1C(F)(F)F,-3.5913
159,B-160,quinethazone,"InChI=1S/C10H12ClN3O3S/c1-2-9-13-7-4-6(11)8(18(12,16)17)3-5(7)10(15)14-9/h3-4,9,13H,2H2,1H3,(H,14,15)(H2,12,16,17)",AGMMTXLNIQSRCG-UHFFFAOYSA-N,CCC1NC(=O)c2cc(c(Cl)cc2N1)[S](N)(=O)=O,-3.2859
160,B-161,arginine,"InChI=1S/C6H14N4O2/c7-4(5(11)12)2-1-3-10-6(8)9/h4H,1-3,7H2,(H,11,12)(H4,8,9,10)",ODKSFYDXXFIFQN-UHFFFAOYSA-N,NC(CCCN=C(N)N)C(O)=O,0.019
161,B-162,methane,InChI=1S/CH4/h1H4,VNWKTOKETHGBQD-UHFFFAOYSA-N,C,-2.8629
162,B-163,ethane,InChI=1S/C2H6/c1-2/h1-2H3,OTMSDBZUPAUEDD-UHFFFAOYSA-N,CC,-2.6985
163,B-164,ethylene,InChI=1S/C2H4/c1-2/h1-2H2,VGGSQFUCUMXWEO-UHFFFAOYSA-N,C=C,-2.3307
164,B-165,acetylene,InChI=1S/C2H2/c1-2/h1-2H,HSFWRNGVRCDJHI-UHFFFAOYSA-N,C#C,-1.3364
165,B-166,methylamine,"InChI=1S/CH5N/c1-2/h2H2,1H3",BAVYZALUXZFZLV-UHFFFAOYSA-N,CN,1.5413
166,B-167,hydrocyanic acid,InChI=1S/CHN/c1-2/h1H,LELOWRISYMNNSU-UHFFFAOYSA-N,C#N,1.5682
167,B-168,propane,"InChI=1S/C3H8/c1-3-2/h3H2,1-2H3",ATUOYWHBWRKTHZ-UHFFFAOYSA-N,CCC,-2.8492
168,B-169,propyne,"InChI=1S/C3H4/c1-3-2/h1H,2H3",MWWATHDPGQKSAR-UHFFFAOYSA-N,CC#C,-1.0417
169,B-170,vinylchloride,"InChI=1S/C2H3Cl/c1-2-3/h2H,1H2",BZHJMEDXRYGGRV-UHFFFAOYSA-N,ClC=C,-0.8514
170,B-171,ethylamine,"InChI=1S/C2H7N/c1-2-3/h2-3H2,1H3",QUSNBJAOOMFDIB-UHFFFAOYSA-N,CCN,1.3459999999999999
171,B-172,acetonitrile,InChI=1S/C2H3N/c1-2-3/h1H3,WEVYAHXRMPXWCK-UHFFFAOYSA-N,CC#N,1.3867
172,B-173,formamide,"InChI=1S/CH3NO/c2-1-3/h1H,(H2,2,3)",ZHNUHDYFZUAESO-UHFFFAOYSA-N,NC=O,1.3464
173,B-174,formamide oxime,"InChI=1S/CH3NO/c1-2-3/h3H,1H2",SQDFHQJTAWCFIB-UHFFFAOYSA-N,ON=C,0.5768
174,B-175,dimethylsulfide,InChI=1S/C2H6S/c1-3-2/h1-2H3,QMMFVYPAHWMCMS-UHFFFAOYSA-N,CSC,-0.4503
175,B-176,ethylene oxide,InChI=1S/C2H4O/c1-2-3-1/h1-2H2,IAYPIBMASNFSPL-UHFFFAOYSA-N,C1CO1,1.3559999999999999
176,B-177,bromoform,InChI=1S/CHBr3/c2-1(3)4/h1H,DIKBFYAXUHHXCS-UHFFFAOYSA-N,BrC(Br)Br,-1.9113
177,B-178,2-bromopropane,"InChI=1S/C3H7Br/c1-3(2)4/h3H,1-2H3",NAMYKGVDVNBCFQ-UHFFFAOYSA-N,CC(C)Br,-1.5874
178,B-179,bromodichloromethane,InChI=1S/CHBrCl2/c2-1(3)4/h1H,FMWLUWPQPKEARP-UHFFFAOYSA-N,ClC(Cl)Br,-1.7327
179,B-180,2-iodopropane,"InChI=1S/C3H7I/c1-3(2)4/h3H,1-2H3",FMKOJHQHASLBPH-UHFFFAOYSA-N,CC(C)I,-2.0843
180,B-181,isopropylamine,"InChI=1S/C3H9N/c1-3(2)4/h3H,4H2,1-2H3",JJWLVOIRVHMVIS-UHFFFAOYSA-N,CC(C)N,1.2283
181,B-182,iodoform,InChI=1S/CHI3/c2-1(3)4/h1H,OKJPEAGHQZHRQV-UHFFFAOYSA-N,IC(I)I,-3.5952
182,B-183,2-methylaziridine,"InChI=1S/C3H7N/c1-3-2-4-3/h3-4H,2H2,1H3",OZDGMOYKSFPLSE-UHFFFAOYSA-N,CC1CN1,1.2434
183,B-184,cacodylic acid,"InChI=1S/C2H7AsO2/c1-3(2,4)5/h1-2H3,(H,4,5)",OGGXGZAMXPVRFZ-UHFFFAOYSA-N,C[As](C)(O)=O,1.1612
184,B-185,t-butylamine,"InChI=1S/C4H11N/c1-4(2,3)5/h5H2,1-3H3",YBRBMKDOPFTVDT-UHFFFAOYSA-N,CC(C)(C)N,1.1359
185,B-186,t-butanol,"InChI=1S/C4H10O/c1-4(2,3)5/h5H,1-3H3",DKGAVHZHDRPRBM-UHFFFAOYSA-N,CC(C)(C)O,1.13
186,B-187,"1-chloro-1,1-difluoroethane","InChI=1S/C2H3ClF2/c1-2(3,4)5/h1H3",BHNZEZWIUMJCGF-UHFFFAOYSA-N,CC(F)(F)Cl,-1.8559999999999999
187,B-188,tetrafluoromethane,"InChI=1S/CF4/c2-1(3,4)5",TXEYQDLBPFQVAA-UHFFFAOYSA-N,FC(F)(F)F,-3.6703
188,B-189,methanesulfonic acid,"InChI=1S/CH4O3S/c1-5(2,3)4/h1H3,(H,2,3,4)",AFVFQIVMOAPDHO-UHFFFAOYSA-N,C[S](O)(=O)=O,1.0173
189,B-190,acetone cyanohydrin,"InChI=1S/C4H7NO/c1-4(2,6)3-5/h6H,1-2H3",MWFMGBPGAXYFAR-UHFFFAOYSA-N,CC(C)(O)C#N,1.07
190,B-191,"1,1,1-trifluoro-2-chloroethane","InChI=1S/C2H2ClF3/c3-1-2(4,5)6/h1H2",CYXIKYKBLDZZNW-UHFFFAOYSA-N,FC(F)(F)CCl,-1.1098
191,B-192,"2,2,2-trifluoroethanol","InChI=1S/C2H3F3O/c3-2(4,5)1-6/h6H,1H2",RHQDFWAXVIIEBN-UHFFFAOYSA-N,OCC(F)(F)F,0.9998
192,B-193,"acetic acid, tribromo-","InChI=1S/C2HBr3O2/c3-2(4,5)1(6)7/h(H,6,7)/p-1",QIONYIKHPASLHO-UHFFFAOYSA-M,[O-]C(=O)C(Br)(Br)Br,-0.1713
193,B-194,"3,3-dimethyl-2-butanone","InChI=1S/C6H12O/c1-5(7)6(2,3)4/h1-4H3",PJGSXYOJTGTZAV-UHFFFAOYSA-N,CC(=O)C(C)(C)C,-0.7219
194,B-195,"2,2-dimethyl propanoic acid","InChI=1S/C5H10O2/c1-5(2,3)4(6)7/h1-3H3,(H,6,7)",IUGYQRQAERSCNH-UHFFFAOYSA-N,CC(C)(C)C(O)=O,-0.6727
195,B-196,dalapon,"InChI=1S/C3H4Cl2O2/c1-3(4,5)2(6)7/h1H3,(H,6,7)",NDUPDOJHUQKPAG-UHFFFAOYSA-N,CC(Cl)(Cl)C(O)=O,0.5455
196,B-197,"1,1,1-trichloro-2-propanol","InChI=1S/C3H5Cl3O/c1-2(7)3(4,5)6/h2,7H,1H3",HCMBPASAOZIEDZ-UHFFFAOYSA-N,CC(O)C(Cl)(Cl)Cl,-0.7574
197,B-198,trichloroacetic acid,"InChI=1S/C2HCl3O2/c3-2(4,5)1(6)7/h(H,6,7)",YNJBWRMUSHSURL-UHFFFAOYSA-N,OC(=O)C(Cl)(Cl)Cl,-0.47600000000000003
198,B-199,"acetic acid, chlorodifluoro-","InChI=1S/C2HClF2O2/c3-2(4,5)1(6)7/h(H,6,7)",OAWAZQITIZDJRB-UHFFFAOYSA-N,OC(=O)C(F)(F)Cl,0.8845
199,B-200,trifluoroacetic acid,"InChI=1S/C2HF3O2/c3-2(4,5)1(6)7/h(H,6,7)",DTQVDTLACAAQTR-UHFFFAOYSA-N,OC(=O)C(F)(F)F,0.943
200,B-201,"1,1,1,2-tetrachloro-2,2-difluoroethane","InChI=1S/C2Cl4F2/c3-1(4,5)2(6,7)8",SLGOCMATMKJJCE-UHFFFAOYSA-N,FC(F)(Cl)C(Cl)(Cl)Cl,-3.3093
201,B-202,"1,1,2,2,-tetrachlorodifluoroethane","InChI=1S/C2Cl4F2/c3-1(4,7)2(5,6)8",UGCSPKPEHQEOSR-UHFFFAOYSA-N,FC(Cl)(Cl)C(F)(Cl)Cl,-3.2301
202,B-203,chloropentafluoroethane,"InChI=1S/C2ClF5/c3-1(4,5)2(6,7)8",RFCAUADVODFSLZ-UHFFFAOYSA-N,FC(F)(F)C(F)(F)Cl,-3.4254
203,B-204,hexafluoroethane,"InChI=1S/C2F6/c3-1(4,5)2(6,7)8",WMIYKQLTONQJES-UHFFFAOYSA-N,FC(F)(F)C(F)(F)F,-4.2489
204,B-205,camphor,"InChI=1S/C10H16O/c1-9(2)7-4-5-10(9,3)8(11)6-7/h7H,4-6H2,1-3H3",DSSYKIVIOFKYAU-UHFFFAOYSA-N,CC1(C)C2CCC1(C)C(=O)C2,-1.9784
205,B-206,alloxantin,"InChI=1S/C8H6N4O8/c13-1-7(19,2(14)10-5(17)9-1)8(20)3(15)11-6(18)12-4(8)16/h19-20H,(H2,9,10,13,14,17)(H2,11,12,15,16,18)",IWDDXZKCDHOOSF-UHFFFAOYSA-N,OC1(C(=O)NC(=O)NC1=O)C2(O)C(=O)NC(=O)NC2=O,-1.9942
206,B-207,triamcinolone acetonide,"InChI=1S/C24H31FO6/c1-20(2)30-19-10-16-15-6-5-13-9-14(27)7-8-21(13,3)23(15,25)17(28)11-22(16,4)24(19,31-20)18(29)12-26/h7-9,15-17,19,26,28H,5-6,10-12H2,1-4H3/t15-,16-,17-,19+,21-,22-,23-,24+/m0/s1",YNDXUCZADRHECN-JNQJZLCISA-N,CC1(C)O[C@@H]2C[C@H]3[C@@H]4CCC5=CC(=O)C=C[C@]5(C)[C@@]4(F)[C@@H](O)C[C@]3(C)[C@@]2(O1)C(=O)CO,-4.3158
207,B-208,2-methyl-2-nitro-1-propanol,"InChI=1S/C4H9NO3/c1-4(2,3-6)5(7)8/h6H,3H2,1-2H3",MVGJRISPEUZYAQ-UHFFFAOYSA-N,CC(C)(CO)[N+]([O-])=O,1.4681
208,B-209,"2,2,3-trichloro-1,1-butanediol","InChI=1S/C4H7Cl3O2/c1-2(5)4(6,7)3(8)9/h2-3,8-9H,1H3",QVYLNOUOIXTUGA-UHFFFAOYSA-N,CC(Cl)C(Cl)(Cl)C(O)O,-0.8666
209,B-210,heptachlor,"InChI=1S/C10H5Cl7/c11-4-2-1-3-5(4)9(15)7(13)6(12)8(3,14)10(9,16)17/h1-5H",FRCCEHPWNOQAEU-UHFFFAOYSA-N,ClC1C=CC2C1C3(Cl)C(=C(Cl)C2(Cl)C3(Cl)Cl)Cl,-6.3168
210,B-211,codeine,"InChI=1S/C18H21NO3/c1-19-8-7-18-11-4-5-13(20)17(18)22-16-14(21-2)6-3-10(15(16)18)9-12(11)19/h3-6,11-13,17,20H,7-9H2,1-2H3/t11-,12+,13-,17-,18-/m0/s1",OROGSEYTTFOCAN-DNJOTXNNSA-N,COc1ccc2C[C@@H]3[C@@H]4C=C[C@H](O)[C@@H]5Oc1c2[C@]45CCN3C,-1.5219999999999998
211,B-212,dionine,"InChI=1S/C19H23NO3/c1-3-22-15-7-4-11-10-13-12-5-6-14(21)18-19(12,8-9-20(13)2)16(11)17(15)23-18/h4-7,12-14,18,21H,3,8-10H2,1-2H3/t12-,13+,14-,18-,19-/m0/s1",OGDVEMNWJVYAJL-LEPYJNQMSA-N,CCOc1ccc2C[C@@H]3[C@@H]4C=C[C@H](O)[C@@H]5Oc1c2[C@]45CCN3C,-2.079
212,B-213,"benzenemethanol, 4-amino-.alpha.,.alpha.-bis(4-a","InChI=1S/C20H21N3O/c1-13-12-16(6-11-19(13)23)20(24,14-2-7-17(21)8-3-14)15-4-9-18(22)10-5-15/h2-12,24H,21-23H2,1H3",OYHZNLZYIRSDHN-UHFFFAOYSA-N,Cc1cc(ccc1N)C(O)(c2ccc(N)cc2)c3ccc(N)cc3,-3.0272
213,B-214,triphenylcarbinol,"InChI=1S/C19H16O/c20-19(16-10-4-1-5-11-16,17-12-6-2-7-13-17)18-14-8-3-9-15-18/h1-15,20H",LZTRCELOJRDYMQ-UHFFFAOYSA-N,OC(c1ccccc1)(c2ccccc2)c3ccccc3,-2.2596
214,B-215,"barbituric acid,5-me-5-phenyl-","InChI=1S/C11H10N2O3/c1-11(7-5-3-2-4-6-7)8(14)12-10(16)13-9(11)15/h2-6H,1H3,(H2,12,13,14,15,16)",LSAOZCAKUIANSQ-UHFFFAOYSA-N,CC1(C(=O)NC(=O)NC1=O)c2ccccc2,-2.4581
215,B-216,phenolphthalein,"InChI=1S/C20H14O4/c21-15-9-5-13(6-10-15)20(14-7-11-16(22)12-8-14)18-4-2-1-3-17(18)19(23)24-20/h1-12,21-22H",KJFMBFZCATUALV-UHFFFAOYSA-N,Oc1ccc(cc1)C2(OC(=O)c3ccccc23)c4ccc(O)cc4,-2.9008
216,B-217,butalbital,"InChI=1S/C11H16N2O3/c1-4-5-11(6-7(2)3)8(14)12-10(16)13-9(11)15/h4,7H,1,5-6H2,2-3H3,(H2,12,13,14,15,16)",UZVHFVZFNXBMQJ-UHFFFAOYSA-N,CC(C)CC1(CC=C)C(=O)NC(=O)NC1=O,-2.1193
217,B-218,chlorthalidone,"InChI=1S/C14H11ClN2O4S/c15-11-6-5-8(7-12(11)22(16,20)21)14(19)10-4-2-1-3-9(10)13(18)17-14/h1-7,19H,(H,17,18)(H2,16,20,21)",JIVPVXMEBJLZRO-UHFFFAOYSA-N,N[S](=O)(=O)c1cc(ccc1Cl)C2(O)NC(=O)c3ccccc23,-3.4507
218,B-219,"2-methyl-2-nitropropane-1,3-diol","InChI=1S/C4H9NO4/c1-4(2-6,3-7)5(8)9/h6-7H,2-3H2,1H3",LOTYADDQWWVBDJ-UHFFFAOYSA-N,CC(CO)(CO)[N+]([O-])=O,0.7724
219,B-220,3-methyl-3-pentanol,"InChI=1S/C6H14O/c1-4-6(3,7)5-2/h7H,4-5H2,1-3H3",FRDAATYAJDYRNW-UHFFFAOYSA-N,CCC(C)(O)CC,-0.38
220,B-221,methyl pentynol,"InChI=1S/C6H10O/c1-4-6(3,7)5-2/h1,7H,5H2,2-3H3",QXLPXWSKPNOQLE-UHFFFAOYSA-N,CCC(C)(O)C#C,0.0038
221,B-222,tabun,"InChI=1S/C5H11N2O2P/c1-4-9-10(8,5-6)7(2)3/h4H2,1-3H3",PJVJTCIRVMBVIA-UHFFFAOYSA-N,CCO[P](=O)(C#N)N(C)C,-0.2186
222,B-223,aminotris(hydroxymethyl)methane,"InChI=1S/C4H11NO3/c5-4(1-6,2-7)3-8/h6-8H,1-3,5H2",LENZDBCJOHFCAS-UHFFFAOYSA-N,NC(CO)(CO)CO,0.6571
223,B-224,acetyl tributyl citrate,"InChI=1S/C20H34O8/c1-5-8-11-25-17(22)14-20(28-16(4)21,19(24)27-13-10-7-3)15-18(23)26-12-9-6-2/h5-15H2,1-4H3",QZCLKYGREBVARF-UHFFFAOYSA-N,CCCCOC(=O)CC(CC(=O)OCCCC)(OC(C)=O)C(=O)OCCCC,-4.9058
224,B-225,citric acid,"InChI=1S/C6H8O7/c7-3(8)1-6(13,5(11)12)2-4(9)10/h13H,1-2H2,(H,7,8)(H,9,10)(H,11,12)",KRKNYBCHXYNGOX-UHFFFAOYSA-N,OC(=O)CC(O)(CC(O)=O)C(O)=O,0.4887
225,B-226,triethyl citrate,"InChI=1S/C12H20O7/c1-4-17-9(13)7-12(16,11(15)19-6-3)8-10(14)18-5-2/h16H,4-8H2,1-3H3",DOOTYTYQINUNNV-UHFFFAOYSA-N,CCOC(=O)CC(O)(CC(=O)OCC)C(=O)OCC,-0.6285
226,B-227,"1,1,1-tris(hydroxymethyl)propane","InChI=1S/C6H14O3/c1-2-6(3-7,4-8)5-9/h7-9H,2-5H2,1H3",ZJCCRDAZUWHFQH-UHFFFAOYSA-N,CCC(CO)(CO)CO,0.8723
227,B-228,pentaerythritol tetranitrate,"InChI=1S/C5H8N4O12/c10-6(11)18-1-5(2-19-7(12)13,3-20-8(14)15)4-21-9(16)17/h1-4H2",TZRXHJWUDPFEEY-UHFFFAOYSA-N,[O-][N+](=O)OCC(CO[N+]([O-])=O)(CO[N+]([O-])=O)CO[N+]([O-])=O,-3.8664
228,B-229,"3-pentanol, 3-methyl-, carbamate","InChI=1S/C7H15NO2/c1-4-7(3,5-2)10-6(8)9/h4-5H2,1-3H3,(H2,8,9)",SLWGJZPKHAXZQL-UHFFFAOYSA-N,CCC(C)(CC)OC(N)=O,-1.5599
229,B-230,tri-p-cresyl phosphate,"InChI=1S/C21H21O4P/c1-16-4-10-19(11-5-16)23-26(22,24-20-12-6-17(2)7-13-20)25-21-14-8-18(3)9-15-21/h4-15H,1-3H3",BOSMZFBHAYFUBJ-UHFFFAOYSA-N,Cc1ccc(O[P](=O)(Oc2ccc(C)cc2)Oc3ccc(C)cc3)cc1,-6.0892
230,B-231,carisoprodol,"InChI=1S/C12H24N2O4/c1-5-6-12(4,7-17-10(13)15)8-18-11(16)14-9(2)3/h9H,5-8H2,1-4H3,(H2,13,15)(H,14,16)",OFZCIYFFPZCNJE-UHFFFAOYSA-N,CCCC(C)(COC(N)=O)COC(=O)NC(C)C,-2.9384
231,B-232,dibutyl butylphosphonate,"InChI=1S/C12H27O3P/c1-4-7-10-14-16(13,12-9-6-3)15-11-8-5-2/h4-12H2,1-3H3",JPGXOMADPRULAC-UHFFFAOYSA-N,CCCCO[P](=O)(CCCC)OCCCC,-2.6995
232,B-233,tri-2-butoxyethyl phosphate,"InChI=1S/C18H39O7P/c1-4-7-10-20-13-16-23-26(19,24-17-14-21-11-8-5-2)25-18-15-22-12-9-6-3/h4-18H2,1-3H3",WTLBZVNBAKMVDP-UHFFFAOYSA-N,CCCCOCCO[P](=O)(OCCOCCCC)OCCOCCCC,-2.559
233,B-234,menazon,"InChI=1S/C6H12N5O2PS2/c1-12-14(15,13-2)16-3-4-9-5(7)11-6(8)10-4/h3H2,1-2H3,(H4,7,8,9,10,11)",SUYHYHLFUHHVJQ-UHFFFAOYSA-N,CO[P](=S)(OC)SCc1nc(N)nc(N)n1,-3.069