,ID,Name,InChI,InChIKey,SMILES,Solubility
2369,B-2370,methylcyclopentadienyl manganese,"InChI=1S/C6H7.3CO.Mn/c1-6-4-2-3-5-6;3*1-2;/h2-5H,1H3;;;;/q-1;;;;",IYSGJCJSRBFZSZ-UHFFFAOYSA-N,[Mn].C[c-]1cccc1.[C-]#[O+].[C-]#[O+].[C-]#[O+],-3.8762
2370,B-2371,disperse blue 79,"InChI=1S/C24H27BrN6O10/c1-5-39-23-13-19(27-28-20-10-17(30(35)36)11-22(24(20)25)31(37)38)18(26-14(2)32)12-21(23)29(6-8-40-15(3)33)7-9-41-16(4)34/h10-13H,5-9H2,1-4H3,(H,26,32)",KOAZOWWCVCWYMN-UHFFFAOYSA-N,CCOc1cc(N=Nc2cc(cc(c2Br)[N+]([O-])=O)[N+]([O-])=O)c(NC(C)=O)cc1N(CCOC(C)=O)CCOC(C)=O,-8.8336
2371,B-2372,landrin,"InChI=1S/C11H15NO2/c1-7-5-8(2)9(3)10(6-7)14-11(13)12-4/h5-6H,1-4H3,(H,12,13)",NYOKZHDTNBDPOB-UHFFFAOYSA-N,CNC(=O)Oc1cc(C)cc(C)c1C,-1.9851
2372,B-2373,propagermanium,"InChI=1S/C6H10Ge2O7/c9-5(10)1-3-7(13)15-8(14)4-2-6(11)12/h1-4H2,(H,9,10)(H,11,12)",XEABSBMNTNXEJM-UHFFFAOYSA-N,OC(=O)CC[Ge](=O)O[Ge](=O)CCC(O)=O,-1.4932
2373,B-2374,ancymidol,"InChI=1S/C15H16N2O2/c1-19-14-6-4-12(5-7-14)15(18,11-2-3-11)13-8-16-10-17-9-13/h4-11,18H,2-3H2,1H3",HUTDUHSNJYTCAR-UHFFFAOYSA-N,COc1ccc(cc1)C(O)(C2CC2)c3cncnc3,-2.5959
2374,B-2375,"o1,o3-diisopropyl-glycerol","InChI=1S/C9H20O3/c1-7(2)11-5-9(10)6-12-8(3)4/h7-10H,5-6H2,1-4H3",AJJGRBMYVRSEES-UHFFFAOYSA-N,CC(C)OCC(O)COC(C)C,0.0549
2375,B-2376,"benzoic acid, 5-acetyl-2-hydroxy-","InChI=1S/C9H8O4/c1-5(10)6-2-3-8(11)7(4-6)9(12)13/h2-4,11H,1H3,(H,12,13)/p-1",NZRDKNBIPVLNHA-UHFFFAOYSA-M,CC(=O)c1ccc(O)c(c1)C([O-])=O,-2.2304
2376,B-2377,"propane, 1,2,2,3-tetrachloro-","InChI=1S/C3H4Cl4/c4-1-3(6,7)2-5/h1-2H2",UDPHJTAYHSSOQB-UHFFFAOYSA-N,ClCC(Cl)(Cl)CCl,-2.5785
2377,B-2378,periplocin,"InChI=1S/C36H56O13/c1-18-30(24(37)14-27(39)47-18)46-17-25-28(40)31(44-4)29(41)32(49-25)48-20-5-9-33(2)22-6-10-34(3)21(19-13-26(38)45-16-19)8-12-36(34,43)23(22)7-11-35(33,42)15-20/h13,18,20-25,27-32,37,39-43H,5-12,14-17H2,1-4H3/t18?,20-,21+,22?,23?,24?,25?,27-,28+,29?,30-,31?,32+,33+,34+,35-,36-/m0/s1",JVFYCULORCKYMD-WSSBEIOBSA-N,COC1[C@H](O)C(CO[C@@H]2C(O)C[C@@H](O)OC2C)O[C@@H](O[C@H]3CC[C@]4(C)C5CC[C@]6(C)[C@H](CC[C@]6(O)C5CC[C@]4(O)C3)C7=CC(=O)OC7)C1O,-1.94
2378,B-2379,"1,4-benzenedicarboxamide, n,n,n',n'-tetramethyl-","InChI=1S/C12H16N2O2/c1-13(2)11(15)9-5-7-10(8-6-9)12(16)14(3)4/h5-8H,1-4H3",MKIKJJUYURBXJT-UHFFFAOYSA-N,CN(C)C(=O)c1ccc(cc1)C(=O)N(C)C,0.2656
2379,B-2380,"3-pyridinecarboxamide, n-2-pyridinyl-","InChI=1S/C11H9N3O/c15-11(9-4-3-6-12-8-9)14-10-5-1-2-7-13-10/h1-8H,(H,13,14,15)",QZNPXKRALPFXPR-UHFFFAOYSA-N,O=C(Nc1ccccn1)c2cccnc2,-2.9771
2380,B-2381,phosphamidon,"InChI=1S/C10H19ClNO5P/c1-6-12(7-2)10(13)9(11)8(3)17-18(14,15-4)16-5/h6-7H2,1-5H3/b9-8-",RGCLLPNLLBQHPF-HJWRWDBZSA-N,CCN(CC)C(=O)\C(Cl)=C(/C)O[P](=O)(OC)OC,0.5233
2381,B-2382,bromofenoxim,"InChI=1S/C13H7Br2N3O6/c14-9-3-7(4-10(15)13(9)19)6-16-24-12-2-1-8(17(20)21)5-11(12)18(22)23/h1-6,16H",VTQWKUZUPOTXEH-UHFFFAOYSA-N,[O-][N+](=O)c1ccc(ONC=C2C=C(Br)C(=O)C(=C2)Br)c(c1)[N+]([O-])=O,-6.6637
2382,B-2383,"o-ethyl s,s-dipropyl phosphorodithioate","InChI=1S/C8H19O2PS2/c1-4-7-12-11(9,10-6-3)13-8-5-2/h4-8H2,1-3H3",VJYFKVYYMZPMAB-UHFFFAOYSA-N,CCCS[P](=O)(OCC)SCCC,-2.5094
2383,B-2384,"8h-purin-8-one, 1,7-dihydro-","InChI=1S/C5H4N4O/c10-5-8-3-1-6-2-7-4(3)9-5/h1-2H,(H2,6,7,8,9,10)",YPDSIEMYVQERLJ-UHFFFAOYSA-N,O=C1Nc2cncnc2N1,-1.5141
2384,B-2385,n-nitrososarcosine,"InChI=1S/C3H6N2O3/c1-5(4-8)2-3(6)7/h2H2,1H3,(H,6,7)",HJMPSKKJHVWPBK-UHFFFAOYSA-N,CN(CC(O)=O)N=O,0.9278
2385,B-2386,"imidodicarbonimidic diamide, n-1-naphthalenyl-","InChI=1S/C12H13N5/c13-11(14)17-12(15)16-10-7-3-5-8-4-1-2-6-9(8)10/h1-7H,(H6,13,14,15,16,17)",UUBZPMKBMHXGNE-UHFFFAOYSA-N,NC(=N)NC(=N)Nc1cccc2ccccc12,-2.3151
2386,B-2387,kitazine,"InChI=1S/C11H17O3PS/c1-3-13-15(12,14-4-2)16-10-11-8-6-5-7-9-11/h5-9H,3-4,10H2,1-2H3",XFMJUIKWKVJNDY-UHFFFAOYSA-N,CCO[P](=O)(OCC)SCc1ccccc1,-2.4155
2387,B-2388,procion blue mx-r,"InChI=1S/C23H14Cl2N6O8S2/c24-21-29-22(25)31-23(30-21)28-12-7-9(5-6-14(12)40(34,35)36)27-13-8-15(41(37,38)39)18(26)17-16(13)19(32)10-3-1-2-4-11(10)20(17)33/h1-8,27H,26H2,(H,34,35,36)(H,37,38,39)(H,28,29,30,31)",RTLULCVBFCRQKI-UHFFFAOYSA-N,Nc1c(cc(Nc2ccc(c(Nc3nc(Cl)nc(Cl)n3)c2)[S](O)(=O)=O)c4C(=O)c5ccccc5C(=O)c14)[S](O)(=O)=O,0.1956
2388,B-2389,"benzeneacetic acid, .alpha.-[(carboxymethyl)thio","InChI=1S/C10H10O4S/c11-8(12)6-15-9(10(13)14)7-4-2-1-3-5-7/h1-5,9H,6H2,(H,11,12)(H,13,14)",AIUNWFBYULOSRS-UHFFFAOYSA-N,OC(=O)CSC(C(O)=O)c1ccccc1,-1.1559
2389,B-2390,"1-butanamine, n-ethyl-","InChI=1S/C6H15N/c1-3-5-6-7-4-2/h7H,3-6H2,1-2H3",QHCCDDQKNUYGNC-UHFFFAOYSA-N,CCCCNCC,-0.4405
2390,B-2391,"2,4(1h,3h)-pteridinedione, 1,3-dimethyl-","InChI=1S/C8H8N4O2/c1-11-6-5(9-3-4-10-6)7(13)12(2)8(11)14/h3-4H,1-2H3",LMXZVISHHDYBFW-UHFFFAOYSA-N,CN1C(=O)N(C)c2nccnc2C1=O,-1.4598
2391,B-2392,"7-nitro-2,2-dimethyl-2,3-dihydrobenzofuran","InChI=1S/C10H11NO3/c1-10(2)6-7-4-3-5-8(11(12)13)9(7)14-10/h3-5H,6H2,1-2H3",ZQZNLPNVEXRNNG-UHFFFAOYSA-N,CC1(C)Cc2cccc(c2O1)[N+]([O-])=O,-3.2068
2392,B-2393,"furan, tetrahydro-3-methyl-","InChI=1S/C5H10O/c1-5-2-3-6-4-5/h5H,2-4H2,1H3",LJPCNSSTRWGCMZ-UHFFFAOYSA-N,CC1CCOC1,0.0901
2393,B-2394,"l-cysteine, n-acetyl-s-(3,4-dichlorophenyl)-","InChI=1S/C11H11Cl2NO3S/c1-6(15)14-10(11(16)17)5-18-7-2-3-8(12)9(13)4-7/h2-4,10H,5H2,1H3,(H,14,15)(H,16,17)/t10-/m0/s1",JYWAYDDGOPHFIS-JTQLQIEISA-N,CC(=O)N[C@@H](CSc1ccc(Cl)c(Cl)c1)C(O)=O,-2.8868
2394,B-2395,pyrazophos,"InChI=1S/C14H20N3O5PS/c1-5-19-14(18)11-9-17-12(15-10(11)4)8-13(16-17)22-23(24,20-6-2)21-7-3/h8-9H,5-7H2,1-4H3",JOOMJVFZQRQWKR-UHFFFAOYSA-N,CCOC(=O)c1cn2nc(O[P](=S)(OCC)OCC)cc2nc1C,-4.9489
2395,B-2396,"2(1h)-pyridinone, 5-iodo-","InChI=1S/C5H4INO/c6-4-1-2-5(8)7-3-4/h1-3H,(H,7,8)",ZDJUNNCVIDKJAN-UHFFFAOYSA-N,IC1=CNC(=O)C=C1,-1.7423
2396,B-2397,guazatine free base,"InChI=1S/C18H41N7/c19-17(20)24-15-11-7-3-1-5-9-13-23-14-10-6-2-4-8-12-16-25-18(21)22/h23H,1-16H2,(H4,19,20,24)(H4,21,22,25)",RONFGUROBZGJKP-UHFFFAOYSA-N,NC(N)=NCCCCCCCCNCCCCCCCCN=C(N)N,0.3322
2397,B-2398,2-diethylamino-4-ethylamino-6-methoxy-s-triazi*,"InChI=1S/C10H19N5O/c1-5-11-8-12-9(15(6-2)7-3)14-10(13-8)16-4/h5-7H2,1-4H3,(H,11,12,13,14)",MVILCVSEDHFDSS-UHFFFAOYSA-N,CCNc1nc(OC)nc(n1)N(CC)CC,-2.9987
2398,B-2399,"propanoic acid, 2-hydroxy-, 2-butoxy-1-methyl-2-","InChI=1S/C10H18O5/c1-4-5-6-14-10(13)8(3)15-9(12)7(2)11/h7-8,11H,4-6H2,1-3H3",QRCKUXOGGLKXGH-UHFFFAOYSA-N,CCCCOC(=O)C(C)OC(=O)C(C)O,-1.3752
2399,B-2400,"urea, n,n''-methylenebis-","InChI=1S/C3H8N4O2/c4-2(8)6-1-7-3(5)9/h1H2,(H3,4,6,8)(H3,5,7,9)",KQVLODRFGIKJHZ-UHFFFAOYSA-N,NC(=O)NCNC(N)=O,-0.6525
2400,B-2401,1-amino-2-butanol,"InChI=1S/C4H11NO/c1-2-4(6)3-5/h4,6H,2-3,5H2,1H3",KODLUXHSIZOKTG-UHFFFAOYSA-N,CCC(O)CN,1.0499
2401,B-2402,dechlorane plus,"InChI=1S/C18H12Cl12/c19-9-10(20)15(25)7-3-4-8-6(2-1-5(7)13(9,23)17(15,27)28)14(24)11(21)12(22)16(8,26)18(14,29)30/h5-8H,1-4H2",UGQQAJOWXNCOPY-UHFFFAOYSA-N,ClC1=C(Cl)C2(Cl)C3CCC4C(CCC3C1(Cl)C2(Cl)Cl)C5(Cl)C(=C(Cl)C4(Cl)C5(Cl)Cl)Cl,-13.1719
2402,B-2403,quinalphos,"InChI=1S/C12H15N2O3PS/c1-3-15-18(19,16-4-2)17-12-9-13-10-7-5-6-8-11(10)14-12/h5-9H,3-4H2,1-2H3",JYQUHIFYBATCCY-UHFFFAOYSA-N,CCO[P](=S)(OCC)Oc1cnc2ccccc2n1,-4.1322
2403,B-2404,isonicotinic acid n-oxide,"InChI=1S/C6H5NO3/c8-6(9)5-1-3-7(10)4-2-5/h1-4H,(H,8,9)",QCWTWMJMLSKQCJ-UHFFFAOYSA-N,OC(=O)c1cc[n+]([O-])cc1,-1.102
2404,B-2405,"piperidine, 3-propyl-,","InChI=1S/C8H17N/c1-2-4-8-5-3-6-9-7-8/h8-9H,2-7H2,1H3",CRZUKKNUMNKBFJ-UHFFFAOYSA-N,CCCC1CCCNC1,-1.011
2405,B-2406,"2-propanol, 1-chloro-, phosphate (3:1)","InChI=1S/C9H18Cl3O4P/c1-7(4-10)14-17(13,15-8(2)5-11)16-9(3)6-12/h7-9H,4-6H2,1-3H3",KVMPUXDNESXNOH-UHFFFAOYSA-N,CC(CCl)O[P](=O)(OC(C)CCl)OC(C)CCl,-2.4361
2406,B-2407,"tris(1,3-dichloroisopropyl) phosphate","InChI=1S/C9H15Cl6O4P/c10-1-7(2-11)17-20(16,18-8(3-12)4-13)19-9(5-14)6-15/h7-9H,1-6H2",ASLWPAWFJZFCKF-UHFFFAOYSA-N,ClCC(CCl)O[P](=O)(OC(CCl)CCl)OC(CCl)CCl,-4.7893
2407,B-2408,desmedipham,"InChI=1S/C16H16N2O4/c1-2-21-15(19)18-13-9-6-10-14(11-13)22-16(20)17-12-7-4-3-5-8-12/h3-11H,2H2,1H3,(H,17,20)(H,18,19)",WZJZMXBKUWKXTQ-UHFFFAOYSA-N,CCOC(=O)Nc1cccc(OC(=O)Nc2ccccc2)c1,-4.6325
2408,B-2409,phenmedipham,"InChI=1S/C16H16N2O4/c1-11-5-3-6-12(9-11)18-16(20)22-14-8-4-7-13(10-14)17-15(19)21-2/h3-10H,1-2H3,(H,17,19)(H,18,20)",IDOWTHOLJBTAFI-UHFFFAOYSA-N,COC(=O)Nc1cccc(OC(=O)Nc2cccc(C)c2)c1,-4.8055
2409,B-2410,delmadinone acetate,"InChI=1S/C23H27ClO4/c1-13(25)23(28-14(2)26)10-7-18-16-12-20(24)19-11-15(27)5-8-21(19,3)17(16)6-9-22(18,23)4/h5,8,11-12,16-18H,6-7,9-10H2,1-4H3",CGBCCZZJVKUAMX-UHFFFAOYSA-N,CC(=O)OC1(CCC2C3C=C(Cl)C4=CC(=O)C=CC4(C)C3CCC12C)C(C)=O,-4.9453
2410,B-2411,azidamfenicol,"InChI=1S/C11H13N5O5/c12-15-13-5-10(18)14-9(6-17)11(19)7-1-3-8(4-2-7)16(20)21/h1-4,9,11,17,19H,5-6H2,(H,14,18)/t9-,11-/m1/s1",SGRUZFCHLOFYHZ-MWLCHTKSSA-N,OC[C@@H](NC(=O)CN=[N+]=[N-])[C@H](O)c1ccc(cc1)[N+]([O-])=O,-1.1692
2411,B-2412,sec-butylamine,"InChI=1S/C4H11N/c1-3-4(2)5/h4H,3,5H2,1-2H3",BHRZNVHARXXAHW-UHFFFAOYSA-N,CCC(C)N,0.1851
2412,B-2413,4-bromo-trans-crotonic acid,"InChI=1S/C4H5BrO2/c5-3-1-2-4(6)7/h1-2H,3H2,(H,6,7)/b2-1+",DOTGZROJTAUYFQ-OWOJBTEDSA-N,OC(=O)\C=C\CBr,-0.7403
2413,B-2414,metiazinic acid,"InChI=1S/C15H13NO2S/c1-16-11-4-2-3-5-13(11)19-14-7-6-10(8-12(14)16)9-15(17)18/h2-8H,9H2,1H3,(H,17,18)",LMINNBXUMGNKMM-UHFFFAOYSA-N,CN1c2ccccc2Sc3ccc(CC(O)=O)cc13,-3.9422
2414,B-2415,"barbituric acid, 5,5-di-2-butenyl-","InChI=1S/C12H16N2O3/c1-3-5-7-12(8-6-4-2)9(15)13-11(17)14-10(12)16/h3-6H,7-8H2,1-2H3,(H2,13,14,15,16,17)/b5-3+,6-4+",OJXLDQJJHBLYOT-GGWOSOGESA-N,C/C=C/CC1(C\C=C\C)C(=O)NC(=O)NC1=O,-2.1973
2415,B-2416,"3-furancarboxylic acid, 2-methyl-5-(1,2,3,4-tetr","InChI=1S/C10H14O7/c1-4-5(10(15)16)2-7(17-4)9(14)8(13)6(12)3-11/h2,6,8-9,11-14H,3H2,1H3,(H,15,16)/p-1/t6-,8-,9+/m1/s1",QCJQVLKXEYQMLF-VDAHYXPESA-M,Cc1oc(cc1C([O-])=O)[C@H](O)[C@H](O)[C@H](O)CO,-1.2774
2416,B-2417,(-)-menthone,"InChI=1S/C10H18O/c1-7(2)9-5-4-8(3)6-10(9)11/h7-9H,4-6H2,1-3H3/t8-,9+/m1/s1",NFLGAXVYCFJBMK-BDAKNGLRSA-N,CC(C)[C@@H]1CC[C@@H](C)CC1=O,-2.4921
2417,B-2418,"4-pteridinamine, n,n-dimethyl-","InChI=1S/C8H9N5/c1-13(2)8-6-7(11-5-12-8)10-4-3-9-6/h3-5H,1-2H3",KXQWQYBKUMVBIB-UHFFFAOYSA-N,CN(C)c1ncnc2nccnc12,-1.0216
2418,B-2419,"propanoic acid, 3-ethoxy-, methyl ester","InChI=1S/C6H12O3/c1-3-9-5-4-6(7)8-2/h3-5H2,1-2H3",HSDFKDZBJMDHFF-UHFFFAOYSA-N,CCOCCC(=O)OC,-0.0719
2419,B-2420,"propanoic acid, 3-ethoxy-, butyl ester","InChI=1S/C9H18O3/c1-3-5-7-12-9(10)6-8-11-4-2/h3-8H2,1-2H3",MVWVAXBILFBQIZ-UHFFFAOYSA-N,CCCCOC(=O)CCOCC,-1.6391
2420,B-2421,"propionic acid, 3-ethoxy-, pentyl ester","InChI=1S/C10H20O3/c1-3-5-6-8-13-10(11)7-9-12-4-2/h3-9H2,1-2H3",LECMFIIQEQTPNP-UHFFFAOYSA-N,CCCCCOC(=O)CCOCC,-2.1956
2421,B-2422,"propionic acid, 3-ethoxy-, hexyl ester","InChI=1S/C11H22O3/c1-3-5-6-7-9-14-11(12)8-10-13-4-2/h3-10H2,1-2H3",ZASWBHFDPXLANO-UHFFFAOYSA-N,CCCCCCOC(=O)CCOCC,-2.8289
2422,B-2423,"propionic acid, 3-propoxy-, methyl ester","InChI=1S/C7H14O3/c1-3-5-10-6-4-7(8)9-2/h3-6H2,1-2H3",DMHHINXESLPPMV-UHFFFAOYSA-N,CCCOCCC(=O)OC,-0.6334
2423,B-2424,"propanoic acid, 3-propoxy-, propyl ester","InChI=1S/C9H18O3/c1-3-6-11-8-5-9(10)12-7-4-2/h3-8H2,1-2H3",YTUFRRBSSNRYID-UHFFFAOYSA-N,CCCOCCC(=O)OCCC,-1.6848
2424,B-2425,"propanoic acid, 3-butoxy-, butyl ester","InChI=1S/C11H22O3/c1-3-5-8-13-10-7-11(12)14-9-6-4-2/h3-10H2,1-2H3",BMOACRKLCOIODC-UHFFFAOYSA-N,CCCCOCCC(=O)OCCCC,-2.4029
2425,B-2426,"pteridine, 2-chloro-",InChI=1S/C6H3ClN4/c7-6-10-3-4-5(11-6)9-2-1-8-4/h1-3H,JISQBJRFTCXDEO-UHFFFAOYSA-N,Clc1ncc2nccnc2n1,-0.6988
2426,B-2427,Dibenzo-18-crown-6,"InChI=1S/C20H24O6/c1-2-6-18-17(5-1)23-13-9-21-11-15-25-19-7-3-4-8-20(19)26-16-12-22-10-14-24-18/h1-8H,9-16H2",YSSSPARMOAYJTE-UHFFFAOYSA-N,C1COc2ccccc2OCCOCCOc3ccccc3OCCO1,-4.6935
2427,B-2428,difenoxuron,"InChI=1S/C16H18N2O3/c1-18(2)16(19)17-12-4-6-14(7-5-12)21-15-10-8-13(20-3)9-11-15/h4-11H,1-3H3,(H,17,19)",AMVYOVYGIJXTQB-UHFFFAOYSA-N,COc1ccc(Oc2ccc(NC(=O)N(C)C)cc2)cc1,-4.1558
2428,B-2429,fenazaflor,"InChI=1S/C15H7Cl2F3N2O2/c16-9-6-11-12(7-10(9)17)22(13(21-11)15(18,19)20)14(23)24-8-4-2-1-3-5-8/h1-7H",ISVQSVPUDBVFFU-UHFFFAOYSA-N,FC(F)(F)c1nc2cc(Cl)c(Cl)cc2n1C(=O)Oc3ccccc3,-4.4603
2429,B-2430,xipamide,"InChI=1S/C15H15ClN2O4S/c1-8-4-3-5-9(2)14(8)18-15(20)10-6-13(23(17,21)22)11(16)7-12(10)19/h3-7,19H,1-2H3,(H,18,20)(H2,17,21,22)",MTZBBNMLMNBNJL-UHFFFAOYSA-N,Cc1cccc(C)c1NC(=O)c2cc(c(Cl)cc2O)[S](N)(=O)=O,-3.7866
2430,B-2431,Valylglycine,"InChI=1S/C7H14N2O3/c1-4(2)6(8)7(12)9-3-5(10)11/h4,6H,3,8H2,1-2H3,(H,9,12)(H,10,11)",IOUPEELXVYPCPG-UHFFFAOYSA-N,CC(C)C(N)C(=O)NCC(O)=O,0.4579
2431,B-2432,"1,3-benzenedicarboxamide, n,n,n',n'-tetramethyl-","InChI=1S/C12H16N2O2/c1-13(2)11(15)9-6-5-7-10(8-9)12(16)14(3)4/h5-8H,1-4H3",SVWDHNLFFDIWHM-UHFFFAOYSA-N,CN(C)C(=O)c1cccc(c1)C(=O)N(C)C,0.48700000000000004
2432,B-2433,"butanoic acid, 4,4'-diselenobis-","InChI=1S/C8H14O4Se2/c9-7(10)3-1-5-13-14-6-2-4-8(11)12/h1-6H2,(H,9,10)(H,11,12)",WORSJCPMKUOXAD-UHFFFAOYSA-N,OC(=O)CCC[Se][Se]CCCC(O)=O,-2.2471
2433,B-2434,ethyl 4-chlorophenoxyacetate,"InChI=1S/C10H11ClO3/c1-2-13-10(12)7-14-9-5-3-8(11)4-6-9/h3-6H,2,7H2,1H3",QULRDJFRGVHKLN-UHFFFAOYSA-N,CCOC(=O)COc1ccc(Cl)cc1,-2.4206
2434,B-2435,chlorfenprop methyl,"InChI=1S/C10H10Cl2O2/c1-14-10(13)9(12)6-7-2-4-8(11)5-3-7/h2-5,9H,6H2,1H3",YJKIALIXRCSISK-UHFFFAOYSA-N,COC(=O)C(Cl)Cc1ccc(Cl)cc1,-3.7655
2435,B-2436,3-(2-methylphenoxy)pyridazine,"InChI=1S/C11H10N2O/c1-9-5-2-3-6-10(9)14-11-7-4-8-12-13-11/h2-8H,1H3",DNPSYFHJYIRREW-UHFFFAOYSA-N,Cc1ccccc1Oc2cccnn2,-1.969
2436,B-2437,"1,2,4-triazolidine-3,5-dione, 4-methyl-1-phenyl-","InChI=1S/C9H9N3O2/c1-11-8(13)10-12(9(11)14)7-5-3-2-4-6-7/h2-6H,1H3,(H,10,13)",XVVORNVNYKBZKT-UHFFFAOYSA-N,CN1C(=O)NN(C1=O)c2ccccc2,-2.9804
2437,B-2438,"benzamide, 2-(2-propenyloxy)-","InChI=1S/C10H11NO2/c1-2-7-13-9-6-4-3-5-8(9)10(11)12/h2-6H,1,7H2,(H2,11,12)",FZEIWORKISALCO-UHFFFAOYSA-N,NC(=O)c1ccccc1OCC=C,-2.2273
2438,B-2439,2-heptene (trans),"InChI=1S/C7H14/c1-3-5-7-6-4-2/h3,5H,4,6-7H2,1-2H3/b5-3+",OTTZHAVKAVGASB-HWKANZROSA-N,CCCC\C=C\C,-3.8298
2439,B-2440,oxolinic acid,"InChI=1S/C13H11NO5/c1-2-14-5-8(13(16)17)12(15)7-3-10-11(4-9(7)14)19-6-18-10/h3-5H,2,6H2,1H3,(H,16,17)",KYGZCKSPAKDVKC-UHFFFAOYSA-N,CCN1C=C(C(O)=O)C(=O)c2cc3OCOc3cc12,-4.9119
2440,B-2441,"2,5-piperazinedione, 3-(1-methylethyl)-","InChI=1S/C7H12N2O2/c1-4(2)6-7(11)8-3-5(10)9-6/h4,6H,3H2,1-2H3,(H,8,11)(H,9,10)",IULFBTHVPRNQCG-UHFFFAOYSA-N,CC(C)C1NC(=O)CNC1=O,-0.8926
2441,B-2442,beta-ionone,"InChI=1S/C13H20O/c1-10-6-5-9-13(3,4)12(10)8-7-11(2)14/h7-8H,5-6,9H2,1-4H3/b8-7+",PSQYTAPXSHCGMF-BQYQJAHWSA-N,CC(=O)/C=C/C1=C(C)CCCC1(C)C,-3.0561
2442,B-2443,"3-heptanol, 4-methyl- (van8ci9ci)","InChI=1S/C8H18O/c1-4-6-7(3)8(9)5-2/h7-9H,4-6H2,1-3H3",BKQICAFAUMRYLZ-UHFFFAOYSA-N,CCCC(C)C(O)CC,-1.9636
2443,B-2444,"1,6-dioxaspiro[4,4]nonane, 2,2,7,7-tetramethyl-","InChI=1S/C11H20O2/c1-9(2)5-7-11(12-9)8-6-10(3,4)13-11/h5-8H2,1-4H3",NJYRFKSWBDHCQL-UHFFFAOYSA-N,CC1(C)CCC2(CCC(C)(C)O2)O1,-1.9644
2444,B-2445,"phenol, 2,2'-sulfonylbis-","InChI=1S/C12H10O4S/c13-9-5-1-3-7-11(9)17(15,16)12-8-4-2-6-10(12)14/h1-8,13-14H",QUWAJPZDCZDTJS-UHFFFAOYSA-N,Oc1ccccc1[S](=O)(=O)c2ccccc2O,-3.3192
2445,B-2446,"dl-phenylalanine, n-(2-cyanoethyl)-","InChI=1S/C12H14N2O2/c13-7-4-8-14-11(12(15)16)9-10-5-2-1-3-6-10/h1-3,5-6,11,14H,4,8-9H2,(H,15,16)/t11-/m0/s1",RDEPSYXOVXRWGR-NSHDSACASA-N,[O-]C(=O)[C@H](Cc1ccccc1)[NH2+]CCC#N,-1.4939
2446,B-2447,"1,1,2,3,3-pentachloropropane",InChI=1S/C3H3Cl5/c4-1(2(5)6)3(7)8/h1-3H,PANVCEBTPSTUEL-UHFFFAOYSA-N,ClC(Cl)C(Cl)C(Cl)Cl,-2.7223
2447,B-2448,"l-tyrosine, 3,5-dichloro-","InChI=1S/C9H9Cl2NO3/c10-5-1-4(2-6(11)8(5)13)3-7(12)9(14)15/h1-2,7,13H,3,12H2,(H,14,15)",MPHURJQUHZHALJ-UHFFFAOYSA-N,NC(Cc1cc(Cl)c(O)c(Cl)c1)C(O)=O,-1.7546
2448,B-2449,"glutaric acid, 3-hydroxy-3-(phenylcarbamoyl)-","InChI=1S/C12H13NO6/c14-9(15)6-12(19,7-10(16)17)11(18)13-8-4-2-1-3-5-8/h1-5,19H,6-7H2,(H,13,18)(H,14,15)(H,16,17)",XIQLELWZTXRHIC-UHFFFAOYSA-N,OC(=O)CC(O)(CC(O)=O)C(=O)Nc1ccccc1,-0.4874
2449,B-2450,"benzoic acid, 4-hydroxy-3-iodo-, methyl ester","InChI=1S/C8H7IO3/c1-12-8(11)5-2-3-7(10)6(9)4-5/h2-4,10H,1H3",PXNOLLHARLSLHY-UHFFFAOYSA-N,COC(=O)c1ccc(O)c(I)c1,-3.3138
2450,B-2451,"benzoic acid, 4-hydroxy-3-iodo-, ethyl ester","InChI=1S/C9H9IO3/c1-2-13-9(12)6-3-4-8(11)7(10)5-6/h3-5,11H,2H2,1H3",HOAXKZYYZXASLJ-UHFFFAOYSA-N,CCOC(=O)c1ccc(O)c(I)c1,-3.4924
2451,B-2452,"benzoic acid, 4-hydroxy-3-iodo-, propyl ester","InChI=1S/C10H11IO3/c1-2-5-14-10(13)7-3-4-9(12)8(11)6-7/h3-4,6,12H,2,5H2,1H3",GEFATVANQYOXLC-UHFFFAOYSA-N,CCCOC(=O)c1ccc(O)c(I)c1,-3.6865
2452,B-2453,"benzoic acid, 4-hydroxy-3-iodo-, butyl ester","InChI=1S/C11H13IO3/c1-2-3-6-15-11(14)8-4-5-10(13)9(12)7-8/h4-5,7,13H,2-3,6H2,1H3",LDGUZTFKHIQDJC-UHFFFAOYSA-N,CCCCOC(=O)c1ccc(O)c(I)c1,-3.9033
2453,B-2454,"propanoic acid, 2-(2,4-dichlorophenoxy)-, (r)-","InChI=1S/C9H8Cl2O3/c1-5(9(12)13)14-8-3-2-6(10)4-7(8)11/h2-5H,1H3,(H,12,13)/t5-/m1/s1",MZHCENGPTKEIGP-RXMQYKEDSA-N,C[C@@H](Oc1ccc(Cl)cc1Cl)C(O)=O,-2.6003
2454,B-2455,tranid,"InChI=1S/C10H12ClN3O2/c1-13-10(15)16-14-9-7-3-5(8(9)11)2-6(7)4-12/h5-8H,2-3H2,1H3,(H,13,15)/b14-9-/t5?,6-,7?,8+/m1/s1",QCQPGRMMDFIQMB-WDAIPKEHSA-N,CNC(=O)O\N=C1/[C@@H](Cl)C2C[C@H](C#N)C1C2,-2.0822
2455,B-2456,"n,n-diethyl-2-(1-naphthalenyloxy)propanamide","InChI=1S/C17H21NO2/c1-4-18(5-2)17(19)13(3)20-16-12-8-10-14-9-6-7-11-15(14)16/h6-13H,4-5H2,1-3H3",WXZVAROIGSFCFJ-UHFFFAOYSA-N,CCN(CC)C(=O)C(C)Oc1cccc2ccccc12,-3.5702
2456,B-2457,diclofenac,"InChI=1S/C14H11Cl2NO2/c15-10-5-3-6-11(16)14(10)17-12-7-2-1-4-9(12)8-13(18)19/h1-7,17H,8H2,(H,18,19)",DCOPUUMXTXDBNB-UHFFFAOYSA-N,OC(=O)Cc1ccccc1Nc2c(Cl)cccc2Cl,-5.0968
2457,B-2458,"benzamide, 2-iodo-n-phenyl","InChI=1S/C13H10INO/c14-12-9-5-4-8-11(12)13(16)15-10-6-2-1-3-7-10/h1-9H,(H,15,16)",LJOZMWRYMKECFF-UHFFFAOYSA-N,Ic1ccccc1C(=O)Nc2ccccc2,-4.2084
2458,B-2459,"1,3-benzodioxole-5-methanol, 6-nitro-","InChI=1S/C8H7NO5/c10-3-5-6(9(11)12)1-2-7-8(5)14-4-13-7/h1-2,10H,3-4H2",LJXBRPHBDWIHPR-UHFFFAOYSA-N,OCc1c2OCOc2ccc1[N+]([O-])=O,-3.0643
2459,B-2460,fluorodifen,"InChI=1S/C13H7F3N2O5/c14-13(15,16)8-1-6-12(11(7-8)18(21)22)23-10-4-2-9(3-5-10)17(19)20/h1-7H",HHMCAJWVGYGUEF-UHFFFAOYSA-N,[O-][N+](=O)c1ccc(Oc2ccc(cc2[N+]([O-])=O)C(F)(F)F)cc1,-5.2151
2460,B-2461,noxythiolin,"InChI=1S/C3H8N2OS/c1-4-7-3-5-2-6/h4-6H,2H2,1H3",BBJPKBLYPSYKMT-UHFFFAOYSA-N,CN[S]#CNCO,-0.0798
2461,B-2462,"propanenitrile, 2-(acetyloxy)-","InChI=1S/C5H7NO2/c1-4(3-6)8-5(2)7/h4H,1-2H3",BMJFWKRWVAQUPA-UHFFFAOYSA-N,CC(OC(C)=O)C#N,0.2475
2462,B-2463,cis-platin,InChI=1S/2ClH.2H3N.Pt/h2*1H;2*1H3;/q;;;;+2/p-2,LXZZYRPGZAFOLE-UHFFFAOYSA-L,N.N.[Cl-].[Cl-].[Pt++],-2.0741
2463,B-2464,ibuprofen,"InChI=1S/C13H18O2/c1-9(2)8-11-4-6-12(7-5-11)10(3)13(14)15/h4-7,9-10H,8H2,1-3H3,(H,14,15)",HEFNNWSXXWATRW-UHFFFAOYSA-N,CC(C)Cc1ccc(cc1)C(C)C(O)=O,-3.9923
2464,B-2465,"quinoxaline-1,4-dihydro-2,3-dione","InChI=1S/C8H6N2O2/c11-7-8(12)10-6-4-2-1-3-5(6)9-7/h1-4H,(H,9,11)(H,10,12)",ABJFBJGGLJVMAQ-UHFFFAOYSA-N,O=C1Nc2ccccc2NC1=O,-2.812
2465,B-2466,"4,4-dimethyloctane","InChI=1S/C10H22/c1-5-7-9-10(3,4)8-6-2/h5-9H2,1-4H3",ZMEDGZAGMLTROM-UHFFFAOYSA-N,CCCCC(C)(C)CCC,-4.8108
2466,B-2467,"2-butanol, (.+-.)-","InChI=1S/C4H10O/c1-3-4(2)5/h4-5H,3H2,1-2H3",BTANRVKWQNVYAZ-UHFFFAOYSA-N,CCC(C)O,0.22699999999999998
2467,B-2468,"acetic acid, 2,2'-tetrathiobis-","InChI=1S/C4H6O4S4/c5-3(6)1-9-11-12-10-2-4(7)8/h1-2H2,(H,5,6)(H,7,8)",OMDZYSJJXJMDDF-UHFFFAOYSA-N,OC(=O)CSSSSCC(O)=O,-1.452
2468,B-2469,"ethanol, 2-butoxy-, carbamate","InChI=1S/C7H15NO3/c1-2-3-4-10-5-6-11-7(8)9/h2-6H2,1H3,(H2,8,9)",QHHQZURUTXQADT-UHFFFAOYSA-N,CCCCOCCOC(N)=O,-0.5084
2469,B-2470,pentachlorobenzyl alcohol,"InChI=1S/C7H3Cl5O/c8-3-2(1-13)4(9)6(11)7(12)5(3)10/h13H,1H2",RVCKCEDKBVEEHL-UHFFFAOYSA-N,OCc1c(Cl)c(Cl)c(Cl)c(Cl)c1Cl,-5.1467
2470,B-2471,zinc lactate,"InChI=1S/2C3H6O3.Zn/c2*1-2(4)3(5)6;/h2*2,4H,1H3,(H,5,6);/q;;+2/p-2",CANRESZKMUPMAE-UHFFFAOYSA-L,[Zn++].CC(O)C([O-])=O.CC(O)C([O-])=O,-1.1638
2471,B-2472,chlorosuccinic acid,"InChI=1S/C4H5ClO4/c5-2(4(8)9)1-3(6)7/h2H,1H2,(H,6,7)(H,8,9)",QEGKXSHUKXMDRW-UHFFFAOYSA-N,OC(=O)CC(Cl)C(O)=O,0.0767
2472,B-2473,carbetamide,"InChI=1S/C12H16N2O3/c1-3-13-11(15)9(2)17-12(16)14-10-7-5-4-6-8-10/h4-9H,3H2,1-2H3,(H,13,15)(H,14,16)/t9-/m0/s1",AMRQXHFXNZFDCH-VIFPVBQESA-N,CCNC(=O)[C@H](C)OC(=O)Nc1ccccc1,-1.8293
2473,B-2474,"phosphonic acid, hexyl-, diethyl ester","InChI=1S/C10H23O3P/c1-4-7-8-9-10-14(11,12-5-2)13-6-3/h4-10H2,1-3H3",VVUJWLDQIIFQHI-UHFFFAOYSA-N,CCCCCC[P](=O)(OCC)OCC,-2.5687