,ID,Name,InChI,InChIKey,SMILES,Solubility
1937,B-1938,"butanoic acid, 2-amino-, (.+-.)-","InChI=1S/C4H9NO2/c1-2-3(5)4(6)7/h3H,2,5H2,1H3,(H,6,7)",QWCKQJZIFLGMSD-UHFFFAOYSA-N,CCC(N)C(O)=O,0.2868
1938,B-1939,"1-chloro-1,2,2,2-tetrafluoroethane","InChI=1S/C2HClF4/c3-1(4)2(5,6)7/h1H",BOUGCJDAQLKBQH-UHFFFAOYSA-N,FC(Cl)C(F)(F)F,-1.959
1939,B-1940,m-chloroanisole,"InChI=1S/C7H7ClO/c1-9-7-4-2-3-6(8)5-7/h2-5H,1H3",YUKILTJWFRTXGB-UHFFFAOYSA-N,COc1cccc(Cl)c1,-2.783
1940,B-1941,chlorpyrifos,"InChI=1S/C9H11Cl3NO3PS/c1-3-14-17(18,15-4-2)16-9-7(11)5-6(10)8(12)13-9/h5H,3-4H2,1-2H3",SBPBAQFWLVIOKP-UHFFFAOYSA-N,CCO[P](=S)(OCC)Oc1nc(Cl)c(Cl)cc1Cl,-5.4956
1941,B-1942,"cyclopentanecarbonitrile, 2-oxo-","InChI=1S/C6H7NO/c7-4-5-2-1-3-6(5)8/h5H,1-3H2",IPMQSLPLJDKUPI-UHFFFAOYSA-N,O=C1CCCC1C#N,-0.3567
1942,B-1943,"carbamic acid, diethylthio-, s-ethyl ester","InChI=1S/C7H15NOS/c1-4-8(5-2)7(9)10-6-3/h4-6H2,1-3H3",WARIWGPBHKPYON-UHFFFAOYSA-N,CCSC(=O)N(CC)CC,-1.6917
1943,B-1944,"phosphonic acid, phenyl, di-2-propenyl ester","InChI=1S/C12H15O3P/c1-3-10-14-16(13,15-11-4-2)12-8-6-5-7-9-12/h3-9H,1-2,10-11H2",YSRMRWIQPVDQBV-UHFFFAOYSA-N,C=CCO[P](=O)(OCC=C)c1ccccc1,-2.8999
1944,B-1945,"phosphinic acid, dibutyl-, butyl ester","InChI=1S/C12H27O2P/c1-4-7-10-14-15(13,11-8-5-2)12-9-6-3/h4-12H2,1-3H3",GXYBSEVPLCHEBL-UHFFFAOYSA-N,CCCCO[P](=O)(CCCC)CCCC,-1.7166
1945,B-1946,"3,5-dichloro-2,6-dimethyl-4-pyridinol","InChI=1S/C7H7Cl2NO/c1-3-5(8)7(11)6(9)4(2)10-3/h1-2H3,(H,10,11)",ZDPIZLCVJAAHHR-UHFFFAOYSA-N,CC1=C(Cl)C(=O)C(=C(C)N1)Cl,-4.2834
1946,B-1947,"benzaldehyde, 3-bromo-4-hydroxy-","InChI=1S/C7H5BrO2/c8-6-3-5(4-9)1-2-7(6)10/h1-4,10H",UOTMHAOCAJROQF-UHFFFAOYSA-N,Oc1ccc(C=O)cc1Br,-2.1794
1947,B-1948,"biphenyl, 3,4'-dichloro-",InChI=1S/C12H8Cl2/c13-11-6-4-9(5-7-11)10-2-1-3-12(14)8-10/h1-8H,CJDNEKOMKXLSBN-UHFFFAOYSA-N,Clc1ccc(cc1)c2cccc(Cl)c2,-6.4001
1948,B-1949,"2,3-dichlorophenoxyacetic acid","InChI=1S/C8H6Cl2O3/c9-5-2-1-3-6(8(5)10)13-4-7(11)12/h1-3H,4H2,(H,11,12)",RBJIGQRZLITQJG-UHFFFAOYSA-N,OC(=O)COc1cccc(Cl)c1Cl,-2.8097
1949,B-1950,"propanoic acid, 2-(acetyloxy)-, ethyl ester","InChI=1S/C7H12O4/c1-4-10-7(9)5(2)11-6(3)8/h5H,4H2,1-3H3",BCHOKJRLDTXCSF-UHFFFAOYSA-N,CCOC(=O)C(C)OC(C)=O,-0.6994
1950,B-1951,"thiocyanic acid, 4-aminophenyl ester","InChI=1S/C7H6N2S/c8-5-10-7-3-1-6(9)2-4-7/h1-4H,9H2",NJYFRQQXXXRJHK-UHFFFAOYSA-N,Nc1ccc(SC#N)cc1,-2.6015
1951,B-1952,"1h-purin-2-amine, 6-(trifluoromethyl)-","InChI=1S/C6H4F3N5/c7-6(8,9)3-2-4(12-1-11-2)14-5(10)13-3/h1H,(H3,10,11,12,13,14)",BPGSASFKCZQNNZ-UHFFFAOYSA-N,Nc1nc2nc[nH]c2c(n1)C(F)(F)F,-3.1346
1952,B-1953,ipatone,"InChI=1S/C11H21N5O/c1-6-16(7-2)10-13-9(12-8(3)4)14-11(15-10)17-5/h8H,6-7H2,1-5H3,(H,12,13,14,15)",STMMVKNOSKBEEI-UHFFFAOYSA-N,CCN(CC)c1nc(NC(C)C)nc(OC)n1,-4.888999999999999
1953,B-1954,norazine,"InChI=1S/C7H12ClN5/c1-4(2)10-7-12-5(8)11-6(9-3)13-7/h4H,1-3H3,(H2,9,10,11,12,13)",KLJYRZOFJHYOCO-UHFFFAOYSA-N,CNc1nc(Cl)nc(NC(C)C)n1,-2.8896
1954,B-1955,4-formyl-2-nitrophenol,"InChI=1S/C7H5NO4/c9-4-5-1-2-7(10)6(3-5)8(11)12/h1-4,10H",YTHJCZRFJGXPTL-UHFFFAOYSA-N,Oc1ccc(C=O)cc1[N+]([O-])=O,-2.9512
1955,B-1956,2-bromo-1-chloropropane,"InChI=1S/C3H6BrCl/c1-3(4)2-5/h3H,2H2,1H3",PUJJZGFFAQHYEX-UHFFFAOYSA-N,CC(Br)CCl,-1.8476
1956,B-1957,g-32292 (aratone),"InChI=1S/C8H15N5O/c1-5(2)10-7-11-6(9-3)12-8(13-7)14-4/h5H,1-4H3,(H2,9,10,11,12,13)",UDLNDEWOMCYEIA-UHFFFAOYSA-N,CNc1nc(NC(C)C)nc(OC)n1,-1.7509
1957,B-1958,brompyrazone,"InChI=1S/C10H8BrN3O/c11-9-8(12)6-13-14(10(9)15)7-4-2-1-3-5-7/h1-6H,12H2",ODNZLRLWXRXPOH-UHFFFAOYSA-N,NC1=C(Br)C(=O)N(N=C1)c2ccccc2,-3.1239999999999997
1958,B-1959,"hexanedioic acid, 3-methyl-; or 3-methyladipic a","InChI=1S/C7H12O4/c1-5(4-7(10)11)2-3-6(8)9/h5H,2-4H2,1H3,(H,8,9)(H,10,11)",SYEOWUNSTUDKGM-UHFFFAOYSA-N,CC(CCC(O)=O)CC(O)=O,0.1899
1959,B-1960,"l-leucine, n-methyl-","InChI=1S/C7H15NO2/c1-5(2)4-6(8-3)7(9)10/h5-6,8H,4H2,1-3H3,(H,9,10)/t6-/m0/s1",XJODGRWDFZVTKW-LURJTMIESA-N,CN[C@@H](CC(C)C)C(O)=O,-0.5146
1960,B-1961,"dl-valine, n-acetyl-","InChI=1S/C7H13NO3/c1-4(2)6(7(10)11)8-5(3)9/h4,6H,1-3H3,(H,8,9)(H,10,11)",IHYJTAOFMMMOPX-UHFFFAOYSA-N,CC(C)C(NC(C)=O)C(O)=O,-0.6325
1961,B-1962,"1,6-heptadiene","InChI=1S/C7H12/c1-3-5-7-6-4-2/h3-4H,1-2,5-7H2",GEAWFZNTIFJMHR-UHFFFAOYSA-N,C=CCCCC=C,-3.3396
1962,B-1963,"1,1,3-trimethylcyclohexane","InChI=1S/C9H18/c1-8-5-4-6-9(2,3)7-8/h8H,4-7H2,1-3H3",PYOLJOJPIPCRDP-UHFFFAOYSA-N,CC1CCCC(C)(C)C1,-4.8532
1963,B-1964,"glycine, n-(2-cyanoethyl)-","InChI=1S/C5H8N2O2/c6-2-1-3-7-4-5(8)9/h7H,1,3-4H2,(H,8,9)",KZUBZCHAWPDYQX-UHFFFAOYSA-N,OC(=O)CNCCC#N,0.3237
1964,B-1965,dl-alloisoleucine,"InChI=1S/C6H13NO2/c1-3-4(2)5(7)6(8)9/h4-5H,3,7H2,1-2H3,(H,8,9)/t4-,5+/m1/s1",AGPKZVBTJJNPAG-UHNVWZDZSA-N,CC[C@@H](C)[C@H](N)C(O)=O,-0.3895
1965,B-1966,"1-butanone, 1-(4-fluorophenyl)-4-(4-hydroxy-4-ph","InChI=1S/C21H24FNO2/c22-19-10-8-17(9-11-19)20(24)7-4-14-23-15-12-21(25,13-16-23)18-5-2-1-3-6-18/h1-3,5-6,8-11,25H,4,7,12-16H2",FEFFZKPQSVTBAY-UHFFFAOYSA-N,OC1(CCN(CCCC(=O)c2ccc(F)cc2)CC1)c3ccccc3,-4.1183
1966,B-1967,"4,4-dimethyl-1-pentanol","InChI=1S/C7H16O/c1-7(2,3)5-4-6-8/h8H,4-6H2,1-3H3",OWCNPTHAWPMOJU-UHFFFAOYSA-N,CC(C)(C)CCCO,-1.5402
1967,B-1968,"l-asparagine, n2-(aminocarbonyl)-","InChI=1S/C5H9N3O4/c6-3(9)1-2(4(10)11)8-5(7)12/h2H,1H2,(H2,6,9)(H,10,11)(H3,7,8,12)/t2-/m0/s1",PMPZMFJQCCSPGS-REOHCLBHSA-N,NC(=O)C[C@H](NC(N)=O)C(O)=O,-0.511
1968,B-1969,"benzamide, n-(3,4-dichlorophenyl)-n-[(dimethylam","InChI=1S/C16H14Cl2N2O2/c1-19(2)16(22)20(12-8-9-13(17)14(18)10-12)15(21)11-6-4-3-5-7-11/h3-10H,1-2H3",QQXXYTVEGCOZRF-UHFFFAOYSA-N,CN(C)C(=O)N(c1ccc(Cl)c(Cl)c1)C(=O)c2ccccc2,-4.3238
1969,B-1970,"urea, chloro-","InChI=1S/CH3ClN2O/c2-4-1(3)5/h(H3,3,4,5)",RMXVHZFHSKRNJN-UHFFFAOYSA-N,NC(=O)NCl,0.3256
1970,B-1971,"glycine, n-(n-leucylglycyl)-","InChI=1S/C10H19N3O4/c1-6(2)3-7(11)10(17)13-4-8(14)12-5-9(15)16/h6-7H,3-5,11H2,1-2H3,(H,12,14)(H,13,17)(H,15,16)/t7-/m0/s1",VWHGTYCRDRBSFI-ZETCQYMHSA-N,CC(C)C[C@H](N)C(=O)NCC(=O)NCC(O)=O,0.2124
1971,B-1972,d-glycero-d-gulo-heptose,"InChI=1S/C7H14O7/c8-1-3(10)5(12)7(14)6(13)4(11)2-9/h1,3-7,9-14H,2H2",YPZMPEPLWKRVLD-UHFFFAOYSA-N,OCC(O)C(O)C(O)C(O)C(O)C=O,-0.3226
1972,B-1973,"benzoic acid, 2-hydroxy-5-(phenylazo)-","InChI=1S/C13H10N2O3/c16-12-7-6-10(8-11(12)13(17)18)15-14-9-4-2-1-3-5-9/h1-8,14H,(H,17,18)/b15-10+",RHNZXOLQSPSLLQ-XNTDXEJSSA-N,OC(=O)C1=C/C(C=CC1=O)=N/Nc2ccccc2,-3.0559
1973,B-1974,"benzenebutanoic acid, 4-methoxy-¥-oxo-","InChI=1S/C11H12O4/c1-15-9-4-2-8(3-5-9)10(12)6-7-11(13)14/h2-5H,6-7H2,1H3,(H,13,14)",OMTDIBZSUZNVJK-UHFFFAOYSA-N,COc1ccc(cc1)C(=O)CCC(O)=O,-1.0632
1974,B-1975,"butanoic acid, 2-[(aminoiminomethyl)amino]-","InChI=1S/C5H11N3O2/c1-2-4(5(9)10)7-3-8-6/h3-4H,2,6H2,1H3,(H,7,8)(H,9,10)",YWCQQPRYWSJMLI-UHFFFAOYSA-N,CCC(NC=NN)C(O)=O,-0.8608
1975,B-1976,"2,4,6-cycloheptatrien-1-one, 5-bromo-2-hydroxy-","InChI=1S/C7H5BrO2/c8-5-1-3-6(9)7(10)4-2-5/h1-4H,(H,9,10)",DAHLUZDNJJOKGS-UHFFFAOYSA-N,OC1=CC=C(Br)C=CC1=O,-3.5629
1976,B-1977,"1,2,5,6,9,10-hexabromocyclododecane","InChI=1S/C12H18Br6/c13-7-1-2-8(14)10(16)5-6-12(18)11(17)4-3-9(7)15/h7-12H,1-6H2",DEIGXXQKDWULML-UHFFFAOYSA-N,BrC1CCC(Br)C(Br)CCC(Br)C(Br)CCC1Br,-7.8728
1977,B-1978,"lactic acid, 2-methyl-, isobutyl ester","InChI=1S/C8H16O3/c1-6(2)5-11-7(9)8(3,4)10/h6,10H,5H2,1-4H3",OMLWQIBXAJLLRC-UHFFFAOYSA-N,CC(C)COC(=O)C(C)(C)O,-0.7276
1978,B-1979,"morpholine, 4-(2-hydroxybenzoyl)-","InChI=1S/C11H13NO3/c13-10-4-2-1-3-9(10)11(14)12-5-7-15-8-6-12/h1-4,13H,5-8H2",TUFGIGGYNZUDAL-UHFFFAOYSA-N,Oc1ccccc1C(=O)N2CCOCC2,-1.7037
1979,B-1980,"2,3-dichloronitrobenzene",InChI=1S/C6H3Cl2NO2/c7-4-2-1-3-5(6(4)8)9(10)11/h1-3H,CMVQZRLQEOAYSW-UHFFFAOYSA-N,[O-][N+](=O)c1cccc(Cl)c1Cl,-3.4881
1980,B-1981,"propane, 1,3-dibromo-2,2-bis(bromomethyl)-","InChI=1S/C5H8Br4/c6-1-5(2-7,3-8)4-9/h1-4H2",OYSVBCSOQFXYHK-UHFFFAOYSA-N,BrCC(CBr)(CBr)CBr,-5.3844
1981,B-1982,tetrapropyl thiopyrophosphorate,"InChI=1S/C12H28O5P2S2/c1-5-9-13-18(20,14-10-6-2)17-19(21,15-11-7-3)16-12-8-4/h5-12H2,1-4H3",IIDFEIDMIKSJSV-UHFFFAOYSA-N,CCCO[P](=S)(OCCC)O[P](=S)(OCCC)OCCC,-4.1009
1982,B-1983,"1,10-phenanthroline, 4,7-dimethyl-","InChI=1S/C14H12N2/c1-9-5-7-15-13-11(9)3-4-12-10(2)6-8-16-14(12)13/h3-8H,1-2H3",JIVLDFFWTQYGSR-UHFFFAOYSA-N,Cc1ccnc2c1ccc3c(C)ccnc23,-3.9686
1983,B-1984,"peroxide, bis(1-oxopropyl)","InChI=1S/C6H10O4/c1-3-5(7)9-10-6(8)4-2/h3-4H2,1-2H3",KOPQZJAYZFAPBC-UHFFFAOYSA-N,CCC(=O)OOC(=O)CC,-0.9634
1984,B-1985,trimethylolpropane trimethacrylate,"InChI=1S/C18H26O6/c1-8-18(9-22-15(19)12(2)3,10-23-16(20)13(4)5)11-24-17(21)14(6)7/h2,4,6,8-11H2,1,3,5,7H3",OKKRPWIIYQTPQF-UHFFFAOYSA-N,CCC(COC(=O)C(C)=C)(COC(=O)C(C)=C)COC(=O)C(C)=C,-4.4155
1985,B-1986,"1,3-propanediol, 2,2-bis(brme)-","InChI=1S/C5H10Br2O2/c6-1-5(2-7,3-8)4-9/h8-9H,1-4H2",CHUGKEQJSLOLHL-UHFFFAOYSA-N,OCC(CO)(CBr)CBr,-0.8384
1986,B-1987,2-(p-chlorophenoxy)propionic acid,"InChI=1S/C9H9ClO3/c1-6(9(11)12)13-8-4-2-7(10)3-5-8/h2-6H,1H3,(H,11,12)",DKHJWWRYTONYHB-UHFFFAOYSA-N,CC(Oc1ccc(Cl)cc1)C(O)=O,-2.1351
1987,B-1988,dimethylguanidine,"InChI=1S/C3H9N3/c1-6(2)3(4)5/h1-2H3,(H3,4,5)",SWSQBOPZIKWTGO-UHFFFAOYSA-N,CN(C)C(N)=N,-1.7306
1988,B-1989,"1-naphthalenecarboxylic acid, 3,4-dihydro-","InChI=1S/C11H10O2/c12-11(13)10-7-3-5-8-4-1-2-6-9(8)10/h1-2,4,6-7H,3,5H2,(H,12,13)",JNPFDSPGHQBUPF-UHFFFAOYSA-N,OC(=O)C1=CCCc2ccccc12,-2.7939
1989,B-1990,d-glycero-l-gulo-heptitol,"InChI=1S/C7H16O7/c8-1-3(10)5(12)7(14)6(13)4(11)2-9/h3-14H,1-2H2",OXQKEKGBFMQTML-UHFFFAOYSA-N,OCC(O)C(O)C(O)C(O)C(O)CO,0.3722
1990,B-1991,"2-cyclohexen-1-one, oxime, (e)-","InChI=1S/C6H9NO/c8-7-6-4-2-1-3-5-6/h2,4,8H,1,3,5H2/b7-6-",WNPVAXLJVUXYFU-SREVYHEPSA-N,O/N=C/1CCCC=C1,-0.7034
1991,B-1992,"5-chloro-2-(2,4-dichlorophenoxy)phenol","InChI=1S/C12H7Cl3O2/c13-7-1-3-11(9(15)5-7)17-12-4-2-8(14)6-10(12)16/h1-6,16H",XEFQLINVKFYRCS-UHFFFAOYSA-N,Oc1cc(Cl)ccc1Oc2ccc(Cl)cc2Cl,-4.4617
1992,B-1993,"1-butene, 4-isothiocyanato-","InChI=1S/C5H7NS/c1-2-3-4-6-5-7/h2H,1,3-4H2",SKIHGKNFJKJXPX-UHFFFAOYSA-N,C=CCCN=C=S,-2.391
1993,B-1994,"tyrosine, 3,5-dichloro-","InChI=1S/C9H9Cl2NO3/c10-5-1-4(2-6(11)8(5)13)3-7(12)9(14)15/h1-2,7,13H,3,12H2,(H,14,15)/t7-/m0/s1",MPHURJQUHZHALJ-ZETCQYMHSA-N,N[C@@H](Cc1cc(Cl)c(O)c(Cl)c1)C(O)=O,-0.7959999999999999
1994,B-1995,"2-chloro-4,6-diamino-s-triazine","InChI=1S/C3H4ClN5/c4-1-7-2(5)9-3(6)8-1/h(H4,5,6,7,8,9)",FVFVNNKYKYZTJU-UHFFFAOYSA-N,Nc1nc(N)nc(Cl)n1,-2.3849
1995,B-1996,"propanamide, n,n'-1,2-ethanediylbis-","InChI=1S/C8H16N2O2/c1-3-7(11)9-5-6-10-8(12)4-2/h3-6H2,1-2H3,(H,9,11)(H,10,12)",USEVKDWMVPLICN-UHFFFAOYSA-N,CCC(=O)NCCNC(=O)CC,0.3746
1996,B-1997,"o,p'-dde",InChI=1S/C14H8Cl4/c15-10-7-5-9(6-8-10)13(14(17)18)11-3-1-2-4-12(11)16/h1-8H,ZDYJWDIWLRZXDB-UHFFFAOYSA-N,Clc1ccc(cc1)C(=C(Cl)Cl)c2ccccc2Cl,-6.3563
1997,B-1998,"[1,2,5]selenadiazolo[3,4-d]pyrimidine-5,7(4h,6h)",InChI=1S/C6H6N4O2Se/c1-9-4-3(7-13-8-4)5(11)10(2)6(9)12/h1-2H3,DBYGTBWHDSPWSZ-UHFFFAOYSA-N,CN1C(=O)N(C)c2n[se]nc2C1=O,-2.2994
1998,B-1999,"2-furancarboxylic acid, 4-bromo-","InChI=1S/C5H3BrO3/c6-3-1-4(5(7)8)9-2-3/h1-2H,(H,7,8)",QALYBHRYGIXHOF-UHFFFAOYSA-N,OC(=O)c1occ(Br)c1,-1.1841
1999,B-2000,1-nonyne,"InChI=1S/C9H16/c1-3-5-7-9-8-6-4-2/h1H,4-9H2,2H3",OSSQSXOTMIGBCF-UHFFFAOYSA-N,CCCCCCCC#C,-4.2405
2000,B-2001,piperalin,"InChI=1S/C16H21Cl2NO2/c1-12-5-2-3-8-19(12)9-4-10-21-16(20)13-6-7-14(17)15(18)11-13/h6-7,11-12H,2-5,8-10H2,1H3",BZGLBXYQOMFXAU-UHFFFAOYSA-N,CC1CCCCN1CCCOC(=O)c2ccc(Cl)c(Cl)c2,-4.2178
2001,B-2002,"quinoxaline, 5,6,7,8-tetrachloro-",InChI=1S/C8H2Cl4N2/c9-3-4(10)6(12)8-7(5(3)11)13-1-2-14-8/h1-2H,NHTGQOXRZFUGJX-UHFFFAOYSA-N,Clc1c(Cl)c(Cl)c2nccnc2c1Cl,-5.428
2002,B-2003,"2,2,5-trimethylhexane","InChI=1S/C9H20/c1-8(2)6-7-9(3,4)5/h8H,6-7H2,1-5H3",HHOSMYBYIHNXNO-UHFFFAOYSA-N,CC(C)CCC(C)(C)C,-5.0474
2003,B-2004,"carbamic acid, diethyl-, ethyl ester","InChI=1S/C7H15NO2/c1-4-8(5-2)7(9)10-6-3/h4-6H2,1-3H3",VAJCYQHLYBTSHG-UHFFFAOYSA-N,CCOC(=O)N(CC)CC,-1.0651
2004,B-2005,"2,4,6-trihydroxybenzophenone","InChI=1S/C13H10O4/c14-9-6-10(15)12(11(16)7-9)13(17)8-4-2-1-3-5-8/h1-7,14-16H",CPEXFJVZFNYXGU-UHFFFAOYSA-N,Oc1cc(O)c(c(O)c1)C(=O)c2ccccc2,-1.8708
2005,B-2006,"di-d-fructofuranose 1,2':2,1'-dianhydride","InChI=1S/C12H20O10/c13-1-5-7(15)9(17)11(21-5)3-20-12(4-19-11)10(18)8(16)6(2-14)22-12/h5-10,13-18H,1-4H2/t5-,6-,7-,8-,9+,10+,11?,12?/m1/s1",DKOQIDXJOZQKIG-NCEFIRPQSA-N,OC[C@H]1OC2(COC3(CO2)O[C@H](CO)[C@@H](O)[C@@H]3O)[C@@H](O)[C@@H]1O,-0.0058
2006,B-2007,"sulfanilamide, n1-(5-isobutyl-1,3,4-thiadiazol-2","InChI=1S/C12H16N4O2S2/c1-8(2)7-11-14-15-12(19-11)16-20(17,18)10-5-3-9(13)4-6-10/h3-6,8H,7,13H2,1-2H3,(H,15,16)",IDXLLBBFRBQZFE-UHFFFAOYSA-N,CC(C)Cc1sc(N[S](=O)(=O)c2ccc(N)cc2)nn1,-3.8226
2007,B-2008,"2-amino-3,5-dibromo-n-cyclohexyl-n-methylbenzene","InChI=1S/C14H20Br2N2/c1-18(12-5-3-2-4-6-12)9-10-7-11(15)8-13(16)14(10)17/h7-8,12H,2-6,9,17H2,1H3",OJGDCBLYJGHCIH-UHFFFAOYSA-N,CN(Cc1cc(Br)cc(Br)c1N)C2CCCCC2,-1.9733
2008,B-2009,chlorphenoxamide,"InChI=1S/C17H16Cl2N2O5/c18-16(19)17(23)20(9-10-22)11-12-1-5-14(6-2-12)26-15-7-3-13(4-8-15)21(24)25/h1-8,16,22H,9-11H2",ODCUSWJXZDHLKV-UHFFFAOYSA-N,OCCN(Cc1ccc(Oc2ccc(cc2)[N+]([O-])=O)cc1)C(=O)C(Cl)Cl,-5.1241
2009,B-2010,"propanedioic acid, nonyl-","InChI=1S/C12H22O4/c1-2-3-4-5-6-7-8-9-10(11(13)14)12(15)16/h10H,2-9H2,1H3,(H,13,14)(H,15,16)",FWQNYUYRXNWOOM-UHFFFAOYSA-N,CCCCCCCCCC(C(O)=O)C(O)=O,-3.3016
2010,B-2011,"2-cf3-4,5-dichlorobenzimidazole","InChI=1S/C8H3Cl2F3N2/c9-3-1-2-4-6(5(3)10)15-7(14-4)8(11,12)13/h1-2H,(H,14,15)",KSROTSBULDYPKA-UHFFFAOYSA-N,FC(F)(F)c1[nH]c2ccc(Cl)c(Cl)c2n1,-3.5677
2011,B-2012,reposal,"InChI=1S/C14H18N2O3/c1-2-14(11(17)15-13(19)16-12(14)18)10-6-8-3-4-9(5-8)7-10/h6,8-9H,2-5,7H2,1H3,(H2,15,16,17,18,19)",MKELYWOVSPVORM-UHFFFAOYSA-N,CCC1(C(=O)NC(=O)NC1=O)C2=CC3CCC(C3)C2,-2.7696
2012,B-2013,"butanedioic acid, methyl-, (r)-","InChI=1S/C5H8O4/c1-3(5(8)9)2-4(6)7/h3H,2H2,1H3,(H,6,7)(H,8,9)/t3-/m1/s1",WXUAQHNMJWJLTG-GSVOUGTGSA-N,C[C@H](CC(O)=O)C(O)=O,0.6311
2013,B-2014,"d-gluconic acid, 2-amino-2-deoxy-","InChI=1S/C6H13NO6/c7-3(6(12)13)5(11)4(10)2(9)1-8/h2-5,8-11H,1,7H2,(H,12,13)",UFYKDFXCZBTLOO-UHFFFAOYSA-N,NC(C(O)C(O)C(O)CO)C(O)=O,-0.8590000000000001
2014,B-2015,"benzeneethanamine, n-(phenylmethyl)-","InChI=1S/C15H17N/c1-3-7-14(8-4-1)11-12-16-13-15-9-5-2-6-10-15/h1-10,16H,11-13H2",UPABQMWFWCMOFV-UHFFFAOYSA-N,C(Cc1ccccc1)NCc2ccccc2,-2.7229
2015,B-2016,4-ethylacetanilide,"InChI=1S/C10H13NO/c1-3-9-4-6-10(7-5-9)11-8(2)12/h4-7H,3H2,1-2H3,(H,11,12)",HOPWGOFWAPWHDS-UHFFFAOYSA-N,CCc1ccc(NC(C)=O)cc1,-2.1453
2016,B-2017,"undecanoic acid, 11-hydroxy-","InChI=1S/C11H22O3/c12-10-8-6-4-2-1-3-5-7-9-11(13)14/h12H,1-10H2,(H,13,14)/p-1",KNRCBASNXNXUQQ-UHFFFAOYSA-M,OCCCCCCCCCCC([O-])=O,-2.7039
2017,B-2018,"spiro[benzofuran-2(3h), 1'-[2]cyclohexene]-3,4'-","InChI=1S/C17H18O6/c1-9-5-10(18)6-14(22-4)17(9)16(19)15-12(21-3)7-11(20-2)8-13(15)23-17/h6-9H,5H2,1-4H3",QPCYNIYZPDJCMB-UHFFFAOYSA-N,COc1cc(OC)c2C(=O)C3(Oc2c1)C(C)CC(=O)C=C3OC,-3.699
2018,B-2019,"butanal, 3-ethoxy-2-oxo-","InChI=1S/C6H10O3/c1-3-9-5(2)6(8)4-7/h4-5H,3H2,1-2H3",VUNAKDMJSGEODG-UHFFFAOYSA-N,CCOC(C)C(=O)C=O,-0.1554
2019,B-2020,chlorophacinone,"InChI=1S/C23H15ClO3/c24-16-12-10-15(11-13-16)19(14-6-2-1-3-7-14)23(27)20-21(25)17-8-4-5-9-18(17)22(20)26/h1-13,19-20H",UDHXJZHVNHGCEC-UHFFFAOYSA-N,Clc1ccc(cc1)C(C(=O)C2C(=O)c3ccccc3C2=O)c4ccccc4,-3.5738
2020,B-2021,5-methylchrysene,"InChI=1S/C19H14/c1-13-12-15-7-3-4-8-16(15)18-11-10-14-6-2-5-9-17(14)19(13)18/h2-12H,1H3",GOHBXWHNJHENRX-UHFFFAOYSA-N,Cc1cc2ccccc2c3ccc4ccccc4c13,-6.5920000000000005
2021,B-2022,"5,6-dimethylchrysene","InChI=1S/C20H16/c1-13-14(2)20-17-9-4-3-7-15(17)11-12-19(20)18-10-6-5-8-16(13)18/h3-12H,1-2H3",SDOJHDGZFOGOFD-UHFFFAOYSA-N,Cc1c(C)c2c3ccccc3ccc2c4ccccc14,-7.0109
2022,B-2023,7-ethylbenz(a)anthracene,"InChI=1S/C20H16/c1-2-16-18-10-6-4-8-15(18)13-20-17-9-5-3-7-14(17)11-12-19(16)20/h3-13H,2H2,1H3",HBFJJKFTOQAJHO-UHFFFAOYSA-N,CCc1c2ccccc2cc3c1ccc4ccccc34,-6.796
2023,B-2024,"1,3-benzenedisulfonamide","InChI=1S/C6H8N2O4S2/c7-13(9,10)5-2-1-3-6(4-5)14(8,11)12/h1-4H,(H2,7,9,10)(H2,8,11,12)",HUYYFHGIHVULSU-UHFFFAOYSA-N,N[S](=O)(=O)c1cccc(c1)[S](N)(=O)=O,-2.1693
2024,B-2025,"3,5-dimethylpyridine-n-oxide","InChI=1S/C7H9NO/c1-6-3-7(2)5-8(9)4-6/h3-5H,1-2H3",SSTLCMOZTCLOLQ-UHFFFAOYSA-N,Cc1cc(C)c[n+]([O-])c1,0.9095
2025,B-2026,2-pyridinemethaneamine,"InChI=1S/C6H8N2/c7-5-6-3-1-2-4-8-6/h1-4H,5,7H2",WOXFMYVTSLAQMO-UHFFFAOYSA-N,NCc1ccccn1,0.966
2026,B-2027,4-pyridinemethaneamine,"InChI=1S/C6H8N2/c7-5-6-1-3-8-4-2-6/h1-4H,5,7H2",TXQWFIVRZNOPCK-UHFFFAOYSA-N,NCc1ccncc1,0.966
2027,B-2028,cyanthoate,"InChI=1S/C10H19N2O4PS/c1-5-15-17(14,16-6-2)18-7-9(13)12-10(3,4)8-11/h5-7H2,1-4H3,(H,12,13)",TWDJIKFUVRYBJF-UHFFFAOYSA-N,CCO[P](=O)(OCC)SCC(=O)NC(C)(C)C#N,-0.6237
2028,B-2029,parathion-amino,"InChI=1S/C10H16NO3PS/c1-3-12-15(16,13-4-2)14-10-7-5-9(11)6-8-10/h5-8H,3-4,11H2,1-2H3",XIZOTXGJXSTQDI-UHFFFAOYSA-N,CCO[P](=S)(OCC)Oc1ccc(N)cc1,-2.826
2029,B-2030,fenclorim,InChI=1S/C10H6Cl2N2/c11-8-6-9(12)14-10(13-8)7-4-2-1-3-5-7/h1-6H,NRFQZTCQAYEXEE-UHFFFAOYSA-N,Clc1cc(Cl)nc(n1)c2ccccc2,-4.9544
2030,B-2031,"cyclopentane, pentyl-","InChI=1S/C10H20/c1-2-3-4-7-10-8-5-6-9-10/h10H,2-9H2,1H3",HPQURZRDYMUHJI-UHFFFAOYSA-N,CCCCCC1CCCC1,-6.0863
2031,B-2032,2-[n-(2-Hydroxyethyl)-3-methyl-4-phenyldiazenylanilino]ethanol,"InChI=1S/C17H21N3O2/c1-14-13-16(20(9-11-21)10-12-22)7-8-17(14)19-18-15-5-3-2-4-6-15/h2-8,13,21-22H,9-12H2,1H3",IXKVXPGDWDXXQM-UHFFFAOYSA-N,Cc1cc(ccc1N=Nc2ccccc2)N(CCO)CCO,-4.1254
2032,B-2033,sulfamethomidine,"InChI=1S/C12H14N4O3S/c1-8-14-11(7-12(15-8)19-2)16-20(17,18)10-5-3-9(13)4-6-10/h3-7H,13H2,1-2H3,(H,14,15,16)",QKLSCPPJEVXONT-UHFFFAOYSA-N,COc1cc(N[S](=O)(=O)c2ccc(N)cc2)nc(C)n1,-2.543
2033,B-2034,benazolin,"InChI=1S/C9H6ClNO3S/c10-5-2-1-3-6-8(5)11(4-7(12)13)9(14)15-6/h1-3H,4H2,(H,12,13)",HYJSGOXICXYZGS-UHFFFAOYSA-N,OC(=O)CN1C(=O)Sc2cccc(Cl)c12,-2.6087
2034,B-2035,"propanedioic acid, dihydrazide","InChI=1S/C3H8N4O2/c4-6-2(8)1-3(9)7-5/h1,4-5H2,(H,6,8)(H,7,9)",PSIKPHJLTVSQFO-UHFFFAOYSA-N,NNC(=O)CC(=O)NN,-0.121
2035,B-2036,glafenine,"InChI=1S/C19H17ClN2O4/c20-12-5-6-14-17(7-8-21-18(14)9-12)22-16-4-2-1-3-15(16)19(25)26-11-13(24)10-23/h1-9,13,23-24H,10-11H2,(H,21,22)",GWOFUCIGLDBNKM-UHFFFAOYSA-N,OCC(O)COC(=O)c1ccccc1Nc2ccnc3cc(Cl)ccc23,-0.9694
2036,B-2037,"2-butanamine, 3,3-dimethyl-","InChI=1S/C6H15N/c1-5(7)6(2,3)4/h5H,7H2,1-4H3/p+1/t5-/m0/s1",DXSUORGKJZADET-YFKPBYRVSA-O,C[C@H]([NH3+])C(C)(C)C,0.9861
2037,B-2038,"propanoic acid, 3-methoxy-, methyl ester","InChI=1S/C5H10O3/c1-7-4-3-5(6)8-2/h3-4H2,1-2H3",BDJSOPWXYLFTNW-UHFFFAOYSA-N,COCCC(=O)OC,0.8027
2038,B-2039,"d-gluconic acid, hydrazide","InChI=1S/C6H14N2O6/c7-8-6(14)5(13)4(12)3(11)2(10)1-9/h2-5,9-13H,1,7H2,(H,8,14)",DSSOAANULUSBGQ-UHFFFAOYSA-N,NNC(=O)C(O)C(O)C(O)C(O)CO,-0.4985
2039,B-2040,fuberidazole,"InChI=1S/C11H8N2O/c1-2-5-9-8(4-1)12-11(13-9)10-6-3-7-14-10/h1-7H,(H,12,13)",UYJUZNLFJAWNEZ-UHFFFAOYSA-N,[nH]1c2ccccc2nc1c3occc3,-3.4139999999999997
2040,B-2041,"10h-phenothiazine, 3-bromo-","InChI=1S/C12H8BrNS/c13-8-5-6-10-12(7-8)15-11-4-2-1-3-9(11)14-10/h1-7,14H",JEWIAYIESCUSKQ-UHFFFAOYSA-N,Brc1ccc2Nc3ccccc3Sc2c1,-6.1119
2041,B-2042,"phenothiazine, 3-iodo-","InChI=1S/C12H8INS/c13-8-5-6-10-12(7-8)15-11-4-2-1-3-9(11)14-10/h1-7,14H",YWRPCJIZYVCDOG-UHFFFAOYSA-N,Ic1ccc2Nc3ccccc3Sc2c1,-6.9278
2042,B-2043,"1,2-bis(2-chloroethylsulfonyl)ethane","InChI=1S/C6H12Cl2O4S2/c7-1-3-13(9,10)5-6-14(11,12)4-2-8/h1-6H2",FQMRVYDYXSOKHL-UHFFFAOYSA-N,ClCC[S](=O)(=O)CC[S](=O)(=O)CCCl,-1.4486
2043,B-2044,alizarin complexone,"InChI=1S/C19H15NO8/c21-13(22)7-20(8-14(23)24)6-9-5-12-15(19(28)16(9)25)18(27)11-4-2-1-3-10(11)17(12)26/h1-5,25,28H,6-8H2,(H,21,22)(H,23,24)",PWIGYBONXWGOQE-UHFFFAOYSA-N,OC(=O)CN(CC(O)=O)Cc1cc2C(=O)c3ccccc3C(=O)c2c(O)c1O,-1.8077
2044,B-2045,"benzoic acid, 3-chloro-4-hydroxy-, methyl ester","InChI=1S/C8H7ClO3/c1-12-8(11)5-2-3-7(10)6(9)4-5/h2-4,10H,1H3",ZSBIMTDWIGWJPW-UHFFFAOYSA-N,COC(=O)c1ccc(O)c(Cl)c1,-2.873
2045,B-2046,"2,2-dimethyl-3-pentanol","InChI=1S/C7H16O/c1-5-6(8)7(2,3)4/h6,8H,5H2,1-4H3",HMSVXZJWPVIVIV-UHFFFAOYSA-N,CCC(O)C(C)(C)C,-1.1514
2046,B-2047,"butanedioic acid, chloro-, (r)-","InChI=1S/C4H5ClO4/c5-2(4(8)9)1-3(6)7/h2H,1H2,(H,6,7)(H,8,9)/t2-/m1/s1",QEGKXSHUKXMDRW-UWTATZPHSA-N,OC(=O)C[C@@H](Cl)C(O)=O,-0.7953