,ID,Name,InChI,InChIKey,SMILES,Solubility
4243,B-4244,chlorbromuron,"InChI=1S/C9H10BrClN2O2/c1-13(15-2)9(14)12-6-3-4-7(10)8(11)5-6/h3-5H,1-2H3,(H,12,14)",NLYNUTMZTCLNOO-UHFFFAOYSA-N,CON(C)C(=O)Nc1ccc(Br)c(Cl)c1,-3.9236
4244,B-4245,chlortoluron,"InChI=1S/C10H13ClN2O/c1-7-4-5-8(6-9(7)11)12-10(14)13(2)3/h4-6H,1-3H3,(H,12,14)",JXCGFZXSOMJFOA-UHFFFAOYSA-N,CN(C)C(=O)Nc1ccc(C)c(Cl)c1,-3.4826
4245,B-4246,edifenphos,"InChI=1S/C14H15O2PS2/c1-2-16-17(15,18-13-9-5-3-6-10-13)19-14-11-7-4-8-12-14/h3-12H,2H2,1H3",AWZOLILCOUMRDG-UHFFFAOYSA-N,CCO[P](=O)(Sc1ccccc1)Sc2ccccc2,-3.3305
4246,B-4247,iodofenphos,"InChI=1S/C8H8Cl2IO3PS/c1-12-15(16,13-2)14-8-4-5(9)7(11)3-6(8)10/h3-4H,1-2H3",LFVLUOAHQIVABZ-UHFFFAOYSA-N,CO[P](=S)(OC)Oc1cc(Cl)c(I)cc1Cl,-6.6160000000000005
4247,B-4248,metoxuron,"InChI=1S/C10H13ClN2O2/c1-13(2)10(14)12-7-4-5-9(15-3)8(11)6-7/h4-6H,1-3H3,(H,12,14)",DSRNRYQBBJQVCW-UHFFFAOYSA-N,COc1ccc(NC(=O)N(C)C)cc1Cl,-2.5811
4248,B-4249,leptophos,"InChI=1S/C13H10BrCl2O2PS/c1-17-19(20,9-5-3-2-4-6-9)18-13-8-11(15)10(14)7-12(13)16/h2-8H,1H3",CVRALZAYCYJELZ-UHFFFAOYSA-N,CO[P](=S)(Oc1cc(Cl)c(Br)cc1Cl)c2ccccc2,-7.1379
4249,B-4250,fenamiphos,"InChI=1S/C13H22NO3PS/c1-6-16-18(15,14-10(2)3)17-12-7-8-13(19-5)11(4)9-12/h7-10H,6H2,1-5H3,(H,14,15)",ZCJPOPBZHLUFHF-UHFFFAOYSA-N,CCO[P](=O)(NC(C)C)Oc1ccc(SC)c(C)c1,-2.9648
4250,B-4251,piperophos,"InChI=1S/C14H28NO3PS2/c1-4-10-17-19(20,18-11-5-2)21-12-14(16)15-9-7-6-8-13(15)3/h13H,4-12H2,1-3H3",UNLYSVIDNRIVFJ-UHFFFAOYSA-N,CCCO[P](=S)(OCCC)SCC(=O)N1CCCCC1C,-4.1504
4251,B-4252,isofenphos,"InChI=1S/C15H24NO4PS/c1-6-18-21(22,16-11(2)3)20-14-10-8-7-9-13(14)15(17)19-12(4)5/h7-12H,6H2,1-5H3,(H,16,22)",HOQADATXFBOEGG-UHFFFAOYSA-N,CCO[P](=S)(NC(C)C)Oc1ccccc1C(=O)OC(C)C,-4.1939
4252,B-4253,iprobenfos,"InChI=1S/C13H21O3PS/c1-11(2)15-17(14,16-12(3)4)18-10-13-8-6-5-7-9-13/h5-9,11-12H,10H2,1-4H3",FCOAHACKGGIURQ-UHFFFAOYSA-N,CC(C)O[P](=O)(OC(C)C)SCc1ccccc1,-2.8579
4253,B-4254,thiobencarb,"InChI=1S/C12H16ClNOS/c1-3-14(4-2)12(15)16-9-10-5-7-11(13)8-6-10/h5-8H,3-4,9H2,1-2H3",QHTQREMOGMZHJV-UHFFFAOYSA-N,CCN(CC)C(=O)SCc1ccc(Cl)cc1,-3.9641
4254,B-4255,acephate,"InChI=1S/C4H10NO3PS/c1-4(6)5-9(7,8-2)10-3/h1-3H3,(H,5,6,7)",YASYVMFAVPKPKE-UHFFFAOYSA-N,CO[P](=O)(NC(C)=O)SC,0.6499
4255,B-4256,isoproturon,"InChI=1S/C12H18N2O/c1-9(2)10-5-7-11(8-6-10)13-12(15)14(3)4/h5-9H,1-4H3,(H,13,15)",PUIYMUZLKQOUOZ-UHFFFAOYSA-N,CC(C)c1ccc(NC(=O)N(C)C)cc1,-3.5363
4256,B-4257,profenofos,"InChI=1S/C11H15BrClO3PS/c1-3-7-18-17(14,15-4-2)16-11-6-5-9(12)8-10(11)13/h5-6,8H,3-4,7H2,1-2H3",QYMMJNLHFKGANY-UHFFFAOYSA-N,CCCS[P](=O)(OCC)Oc1ccc(Br)cc1Cl,-4.1253
4257,B-4258,fenvalerate,"InChI=1S/C25H22ClNO3/c1-17(2)24(18-11-13-20(26)14-12-18)25(28)30-23(16-27)19-7-6-10-22(15-19)29-21-8-4-3-5-9-21/h3-15,17,23-24H,1-2H3",NYPJDWWKZLNGGM-UHFFFAOYSA-N,CC(C)C(C(=O)OC(C#N)c1cccc(Oc2ccccc2)c1)c3ccc(Cl)cc3,-7.2429
4258,B-4259,cypermethrin,"InChI=1S/C22H19Cl2NO3/c1-22(2)17(12-19(23)24)20(22)21(26)28-18(13-25)14-7-6-10-16(11-14)27-15-8-4-3-5-9-15/h3-12,17-18,20H,1-2H3",KAATUXNTWXVJKI-UHFFFAOYSA-N,CC1(C)C(C=C(Cl)Cl)C1C(=O)OC(C#N)c2cccc(Oc3ccccc3)c2,-8.0174
4259,B-4260,propylamine,"InChI=1S/C3H9N/c1-2-3-4/h2-4H2,1H3",WGYKZJWCGVVSQN-UHFFFAOYSA-N,CCCN,1.2283
4260,B-4261,propionic acid,"InChI=1S/C3H6O2/c1-2-3(4)5/h2H2,1H3,(H,4,5)",XBDQKXXYIPTUBI-UHFFFAOYSA-N,CCC(O)=O,1.1303
4261,B-4262,acetaldehyde,"InChI=1S/C2H4O/c1-2-3/h2H,1H3",IKHGUXGNUITLKF-UHFFFAOYSA-N,CC=O,1.3561
4262,B-4263,piperadine,"InChI=1S/C5H11N/c1-2-4-6-5-3-1/h6H,1-5H2",NQRYJNQNLNOLGT-UHFFFAOYSA-N,C1CCNCC1,1.0698
4263,B-4264,"n,n'-dimethylacetamide",InChI=1S/C4H9NO/c1-4(6)5(2)3/h1-3H3,FXHOOIRPVKKKFG-UHFFFAOYSA-N,CN(C)C(C)=O,1.0599
4264,B-4265,n-nitrosodimethylamine,InChI=1S/C2H6N2O/c1-4(2)3-5/h1-2H3,UMFJAHHVKNCGLG-UHFFFAOYSA-N,CN(C)N=O,1.1303
4265,B-4266,methanethiol,"InChI=1S/CH4S/c1-2/h2H,1H3",LSDPWZHWYPCBBB-UHFFFAOYSA-N,CS,-0.4947
4266,B-4267,ethanethiol,"InChI=1S/C2H6S/c1-2-3/h3H,2H2,1H3",DNJIEGIFACGWOD-UHFFFAOYSA-N,CCS,-0.9608
4267,B-4268,pyridine oxide,InChI=1S/C5H5NO/c7-6-4-2-1-3-5-6/h1-5H,ILVXOBCQQYKLDS-UHFFFAOYSA-N,[O-][n+]1ccccc1,1.0218
4268,B-4269,dimethyl disulfide,InChI=1S/C2H6S2/c1-3-4-2/h1-2H3,WQOXQRCZOLPYPM-UHFFFAOYSA-N,CSSC,-1.4969
4269,B-4270,diethyl disulfide,"InChI=1S/C4H10S2/c1-3-5-6-4-2/h3-4H2,1-2H3",CETBSQOFQKLHHZ-UHFFFAOYSA-N,CCSSCC,-2.6101
4270,B-4271,"2,3-dimethylpyridine","InChI=1S/C7H9N/c1-6-4-3-5-8-7(6)2/h3-5H,1-2H3",HPYNZHMRTTWQTB-UHFFFAOYSA-N,Cc1cccnc1C,0.0938
4271,B-4272,"2,4-dimethylpyridine","InChI=1S/C7H9N/c1-6-3-4-8-7(2)5-6/h3-5H,1-2H3",JYYNAJVZFGKDEQ-UHFFFAOYSA-N,Cc1ccnc(C)c1,0.4471
4272,B-4273,"2,5-dimethylpyridine","InChI=1S/C7H9N/c1-6-3-4-7(2)8-5-6/h3-5H,1-2H3",XWKFPIODWVPXLX-UHFFFAOYSA-N,Cc1ccc(C)nc1,-0.03
4273,B-4274,"3,4-dimethylpyridine","InChI=1S/C7H9N/c1-6-3-4-8-5-7(6)2/h3-5H,1-2H3",NURQLCJSMXZBPC-UHFFFAOYSA-N,Cc1ccncc1C,-0.314
4274,B-4275,"3,5-dimethylpyridine","InChI=1S/C7H9N/c1-6-3-7(2)5-8-4-6/h3-5H,1-2H3",HWWYDZCSSYKIAD-UHFFFAOYSA-N,Cc1cncc(C)c1,-0.5115
4275,B-4276,2-vinylpyridine,"InChI=1S/C7H7N/c1-2-7-5-3-4-6-8-7/h2-6H,1H2",KGIGUEBEKRSTEW-UHFFFAOYSA-N,C=Cc1ccccn1,-0.5824
4276,B-4277,4-vinylpyridine,"InChI=1S/C7H7N/c1-2-7-3-5-8-6-4-7/h2-6H,1H2",KFDVPJUYSDEJTH-UHFFFAOYSA-N,C=Cc1ccncc1,-0.5579
4277,B-4278,"2,2-bipyridine",InChI=1S/C10H8N2/c1-3-7-11-9(5-1)10-6-2-4-8-12-10/h1-8H,ROFVEXUMMXZLPA-UHFFFAOYSA-N,c1ccc(nc1)c2ccccn2,-1.4206
4278,B-4279,"4,4'-dipyridyl",InChI=1S/C10H8N2/c1-5-11-6-2-9(1)10-3-7-12-8-4-10/h1-8H,MWVTWFVJZLCBMC-UHFFFAOYSA-N,c1cc(ccn1)c2ccncc2,-1.5376
4279,B-4280,"1,7-phenanthroline",InChI=1S/C12H8N2/c1-3-9-5-6-11-10(4-2-7-13-11)12(9)14-8-1/h1-8H,OZKOMUDCMCEDTM-UHFFFAOYSA-N,c1cnc2c(c1)ccc3ncccc23,-2.6806
4280,B-4281,acridine,InChI=1S/C13H9N/c1-3-7-12-10(5-1)9-11-6-2-4-8-13(11)14-12/h1-9H,DZBUGLKDJFMEHC-UHFFFAOYSA-N,c1ccc2nc3ccccc3cc2c1,-3.6691
4281,B-4282,benzo(f)quinoline,InChI=1S/C13H9N/c1-2-5-11-10(4-1)7-8-13-12(11)6-3-9-14-13/h1-9H,HCAUQPZEWLULFJ-UHFFFAOYSA-N,c1ccc2c(c1)ccc3ncccc23,-3.3574
4282,B-4283,quinoline,InChI=1S/C9H7N/c1-2-6-9-8(4-1)5-3-7-10-9/h1-7H,SMWDFEZZVXVKRB-UHFFFAOYSA-N,c1ccc2ncccc2c1,-1.3251
4283,B-4284,isoquinoline,InChI=1S/C9H7N/c1-2-4-9-7-10-6-5-8(9)3-1/h1-7H,AWJUIBRHMBBTKR-UHFFFAOYSA-N,c1ccc2cnccc2c1,-1.456
4284,B-4285,"2,2'-biquinoline",InChI=1S/C18H12N2/c1-3-7-15-13(5-1)9-11-17(19-15)18-12-10-14-6-2-4-8-16(14)20-18/h1-12H,WPTCSQBWLUUYDV-UHFFFAOYSA-N,c1ccc2nc(ccc2c1)c3ccc4ccccc4n3,-5.4002
4285,B-4286,phthalazine,InChI=1S/C8H6N2/c1-2-4-8-6-10-9-5-7(8)3-1/h1-6H,LFSXCDWNBUNEEM-UHFFFAOYSA-N,c1ccc2cnncc2c1,-0.4155
4286,B-4287,diazinon,"InChI=1S/C12H21N2O3PS/c1-6-15-18(19,16-7-2)17-11-8-10(5)13-12(14-11)9(3)4/h8-9H,6-7H2,1-5H3",FHIVAFMUCKRCQO-UHFFFAOYSA-N,CCO[P](=S)(OCC)Oc1cc(C)nc(n1)C(C)C,-3.8813
4287,B-4288,diphenylolpropane,"InChI=1S/C15H16O2/c1-15(2,11-3-7-13(16)8-4-11)12-5-9-14(17)10-6-12/h3-10,16-17H,1-2H3",IISBACLAFKSPIT-UHFFFAOYSA-N,CC(C)(c1ccc(O)cc1)c2ccc(O)cc2,-3.2793
4288,B-4289,"phenol,2,2'-methylenebis 4-chloro-","InChI=1S/C13H10Cl2O2/c14-10-1-3-12(16)8(6-10)5-9-7-11(15)2-4-13(9)17/h1-4,6-7,16-17H,5H2",MDNWOSOZYLHTCG-UHFFFAOYSA-N,Oc1ccc(Cl)cc1Cc2cc(Cl)ccc2O,-3.9528
4289,B-4290,resorcinol,"InChI=1S/C6H6O2/c7-5-2-1-3-6(8)4-5/h1-4,7-8H",GHMLBKRAJCXXBS-UHFFFAOYSA-N,Oc1cccc(O)c1,0.8137
4290,B-4291,catechol,"InChI=1S/C6H6O2/c7-5-3-1-2-4-6(5)8/h1-4,7-8H",YCIMNLLNPGFGHC-UHFFFAOYSA-N,Oc1ccccc1O,0.6219
4291,B-4292,4-hexylresorcinol,"InChI=1S/C12H18O2/c1-2-3-4-5-6-10-7-8-11(13)9-12(10)14/h7-9,13-14H,2-6H2,1H3",WFJIVOKAWHGMBH-UHFFFAOYSA-N,CCCCCCc1ccc(O)cc1O,-2.5895
4292,B-4293,hydroquinone,"InChI=1S/C6H6O2/c7-5-1-2-6(8)4-3-5/h1-4,7-8H",QIGBRXMKCJKVMJ-UHFFFAOYSA-N,Oc1ccc(O)cc1,-0.1845
4293,B-4294,Diethylstilbestrol,"InChI=1S/C18H20O2/c1-3-17(13-5-9-15(19)10-6-13)18(4-2)14-7-11-16(20)12-8-14/h5-12,19-20H,3-4H2,1-2H3/b18-17+",RGLYKWWBQGJZGM-ISLYRVAYSA-N,CC\C(c1ccc(O)cc1)=C(\CC)c2ccc(O)cc2,-4.3495
4294,B-4295,butanedioc acid,"InChI=1S/C4H6O4/c5-3(6)1-2-4(7)8/h1-2H2,(H,5,6)(H,7,8)",KDYFGRWQOYBRFD-UHFFFAOYSA-N,OC(=O)CCC(O)=O,-0.1521
4295,B-4296,nonanedioc acid,"InChI=1S/C9H16O4/c10-8(11)6-4-2-1-3-5-7-9(12)13/h1-7H2,(H,10,11)(H,12,13)",BDJRBEYXGGNYIS-UHFFFAOYSA-N,OC(=O)CCCCCCCC(O)=O,-1.8945
4296,B-4297,hexanedioc acid,"InChI=1S/C6H10O4/c7-5(8)3-1-2-4-6(9)10/h1-4H2,(H,7,8)(H,9,10)",WNLRTRBMVRJNCN-UHFFFAOYSA-N,OC(=O)CCCCC(O)=O,-0.6762
4297,B-4298,"3,3'-dichlorobenzidine","InChI=1S/C12H10Cl2N2/c13-9-5-7(1-3-11(9)15)8-2-4-12(16)10(14)6-8/h1-6H,15-16H2",HUWXDEQWWKGHRV-UHFFFAOYSA-N,Nc1ccc(cc1Cl)c2ccc(N)c(Cl)c2,-4.912
4298,B-4299,benzidine,"InChI=1S/C12H12N2/c13-11-5-1-9(2-6-11)10-3-7-12(14)8-4-10/h1-8H,13-14H2",HFACYLZERDEVSX-UHFFFAOYSA-N,Nc1ccc(cc1)c2ccc(N)cc2,-2.7575
4299,B-4300,"1,2-benzenediamine","InChI=1S/C6H8N2/c7-5-3-1-2-4-6(5)8/h1-4H,7-8H2",GEYOCULIXLDCMW-UHFFFAOYSA-N,Nc1ccccc1N,-0.4276
4300,B-4301,"1,4-benzenediamine","InChI=1S/C6H8N2/c7-5-1-2-6(8)4-3-5/h1-4H,7-8H2",CBCKQZAAMUWICA-UHFFFAOYSA-N,Nc1ccc(N)cc1,-0.4658
4301,B-4302,"1,3-benzenediamine","InChI=1S/C6H8N2/c7-5-2-1-3-6(8)4-5/h1-4H,7-8H2",WZCQRUWWHSTZEM-UHFFFAOYSA-N,Nc1cccc(N)c1,0.3426
4302,B-4303,"3,3'-dimethoxybenzidine","InChI=1S/C14H16N2O2/c1-17-13-7-9(3-5-11(13)15)10-4-6-12(16)14(8-10)18-2/h3-8H,15-16H2,1-2H3",JRBJSXQPQWSCCF-UHFFFAOYSA-N,COc1cc(ccc1N)c2ccc(N)c(OC)c2,-3.6098
4303,B-4304,p-methylsulfonyltoluene,"InChI=1S/C8H10O2S/c1-7-3-5-8(6-4-7)11(2,9)10/h3-6H,1-2H3",YYDNBUBMBZRNQQ-UHFFFAOYSA-N,Cc1ccc(cc1)[S](C)(=O)=O,-1.9873
4304,B-4305,fensulfothion sulfone,"InChI=1S/C11H17O5PS2/c1-4-14-17(18,15-5-2)16-10-6-8-11(9-7-10)19(3,12)13/h6-9H,4-5H2,1-3H3",VTFZEBCYVXMEBB-UHFFFAOYSA-N,CCO[P](=S)(OCC)Oc1ccc(cc1)[S](C)(=O)=O,-2.6383
4305,B-4306,"n,n'-dimethylformamide","InChI=1S/C3H7NO/c1-4(2)3-5/h3H,1-2H3",ZMXDDKWLCZADIW-UHFFFAOYSA-N,CN(C)C=O,1.1361
4306,B-4307,"n,n-diethylformamide","InChI=1S/C5H11NO/c1-3-6(4-2)5-7/h5H,3-4H2,1-2H3",SUAKHGWARZSWIH-UHFFFAOYSA-N,CCN(CC)C=O,0.995
4307,B-4308,"l-tryptophan, n-acetyl, ethyl ester","InChI=1S/C15H18N2O3/c1-3-20-15(19)14(17(2)10-18)8-11-9-16-13-7-5-4-6-12(11)13/h4-7,9-10,14,16H,3,8H2,1-2H3/t14-/m0/s1",LYXGYFZZVMODTB-AWEZNQCLSA-N,CCOC(=O)[C@H](Cc1c[nH]c2ccccc12)N(C)C=O,-2.2709
4308,B-4309,"ethenesulfonamide, n-phenyl-","InChI=1S/C8H9NO2S/c1-2-12(10,11)9-8-6-4-3-5-7-8/h2-7,9H,1H2",YRLXBWHNSONKOH-UHFFFAOYSA-N,C=C[S](=O)(=O)Nc1ccccc1,-1.4996
4309,B-4310,"benzenamine, n-hydroxy-4-methyl-","InChI=1S/C7H9NO/c1-6-2-4-7(8-9)5-3-6/h2-5,8-9H,1H3",AGJOAIMUXIQLCN-UHFFFAOYSA-N,Cc1ccc(NO)cc1,-0.7894
4310,B-4311,phenylhydroxylamine,"InChI=1S/C6H7NO/c8-7-6-4-2-1-3-5-6/h1-5,7-8H",CKRZKMFTZCFYGB-UHFFFAOYSA-N,ONc1ccccc1,-0.4359
4311,B-4312,disulfoton sulfoxide,"InChI=1S/C8H19O3PS3/c1-4-10-12(13,11-5-2)14-7-8-15(9)6-3/h4-8H2,1-3H3",UPUGLJYNCXXUQV-UHFFFAOYSA-N,CCO[P](=S)(OCC)SCC[S](=O)CC,-1.8609
4312,B-4313,phorate sulfoxide,"InChI=1S/C7H17O4PS2/c1-4-10-12(8,11-5-2)13-7-14(9)6-3/h4-7H2,1-3H3",RCRHKXGEYNVPDK-UHFFFAOYSA-N,CCO[P](=O)(OCC)SC[S](=O)CC,-1.5124
4313,B-4314,"phosphorodithioic acid, s-[2-(et-so)et] o,o-dime","InChI=1S/C6H15O3PS3/c1-4-13(7)6-5-12-10(11,8-2)9-3/h4-6H2,1-3H3",UILALIJMTSYZSE-UHFFFAOYSA-N,CC[S](=O)CCS[P](=S)(OC)OC,-0.9137
4314,B-4315,"1,1'-sulfinylbis(2-chloroethane)",InChI=1S/C4H8Cl2OS/c5-1-3-8(7)4-2-6/h1-4H2,NOMHBBFEJSVGSC-UHFFFAOYSA-N,ClCC[S](=O)CCCl,-1.1641
4315,B-4316,aphidan,"InChI=1S/C9H21O3PS3/c1-6-16(10)7-15-13(14,11-8(2)3)12-9(4)5/h8-9H,6-7H2,1-5H3",KOTOUBGHZHWCCJ-UHFFFAOYSA-N,CC[S](=O)CS[P](=S)(OC(C)C)OC(C)C,-2.3074
4316,B-4317,terbufos sulfone,"InChI=1S/C9H21O4PS3/c1-6-12-14(15,13-7-2)16-8-17(10,11)9(3,4)5/h6-8H2,1-5H3",DWZSTEUTHNUVQD-UHFFFAOYSA-N,CCO[P](=S)(OCC)SC[S](=O)(=O)C(C)(C)C,-2.8951
4317,B-4318,diethyl sulfone,"InChI=1S/C4H10O2S/c1-3-7(5,6)4-2/h3-4H2,1-2H3",MBDUIEKYVPVZJH-UHFFFAOYSA-N,CC[S](=O)(=O)CC,0.0433
4318,B-4319,"ethane, [(iodomethyl)sulfonyl]-","InChI=1S/C3H7IO2S/c1-2-7(5,6)3-4/h2-3H2,1H3",CIYXRBRHNLTRPC-UHFFFAOYSA-N,CC[S](=O)(=O)CI,-0.9714
4319,B-4320,ethyl benzenesulfonate,"InChI=1S/C8H10O3S/c1-2-11-12(9,10)8-6-4-3-5-7-8/h3-7H,2H2,1H3",XDRMBCMMABGNMM-UHFFFAOYSA-N,CCO[S](=O)(=O)c1ccccc1,-2.1308
4320,B-4321,methyl benzenesulfonate,"InChI=1S/C7H8O3S/c1-10-11(8,9)7-5-3-2-4-6-7/h2-6H,1H3",CZXGXYBOQYQXQD-UHFFFAOYSA-N,CO[S](=O)(=O)c1ccccc1,-1.7419
4321,B-4322,pyrazolynate,"InChI=1S/C19H16Cl2N2O4S/c1-11-4-7-14(8-5-11)28(25,26)27-19-17(12(2)22-23(19)3)18(24)15-9-6-13(20)10-16(15)21/h4-10H,1-3H3",ASRAWSBMDXVNLX-UHFFFAOYSA-N,Cn1nc(C)c(C(=O)c2ccc(Cl)cc2Cl)c1O[S](=O)(=O)c3ccc(C)cc3,-6.8946
4322,B-4323,"benzenamine, 4-[(4-chlorophenyl)sulfonyl]-","InChI=1S/C12H10ClNO2S/c13-9-1-5-11(6-2-9)17(15,16)12-7-3-10(14)4-8-12/h1-8H,14H2",RWIUBJDOESNTFZ-UHFFFAOYSA-N,Nc1ccc(cc1)[S](=O)(=O)c2ccc(Cl)cc2,-4.1267
4323,B-4324,"benzoic acid, 5-amino-2-sulfanilyl-","InChI=1S/C13H12N2O4S/c14-8-5-6-10(15)12(7-8)20(18,19)11-4-2-1-3-9(11)13(16)17/h1-7H,14-15H2,(H,16,17)",RLFQWOIZGISXEW-UHFFFAOYSA-N,Nc1ccc(N)c(c1)[S](=O)(=O)c2ccccc2C(O)=O,-1.8395
4324,B-4325,di(p-aminophenyl)sulfone,"InChI=1S/C12H12N2O2S/c13-9-1-5-11(6-2-9)17(15,16)12-7-3-10(14)4-8-12/h1-8H,13-14H2",MQJKPEGWNLWLTK-UHFFFAOYSA-N,Nc1ccc(cc1)[S](=O)(=O)c2ccc(N)cc2,-2.8152
4325,B-4326,"acetamide, n-[4-[(4-aminophenyl)sulfonyl]phenyl]-","InChI=1S/C14H14N2O3S/c1-10(17)16-12-4-8-14(9-5-12)20(18,19)13-6-2-11(15)3-7-13/h2-9H,15H2,1H3,(H,16,17)",WDOCBIHNYYQINH-UHFFFAOYSA-N,CC(=O)Nc1ccc(cc1)[S](=O)(=O)c2ccc(N)cc2,-3.6116
4326,B-4327,"carbamic acid, sulfamoyl-, 2-ethylbutyl ester","InChI=1S/C7H16N2O4S/c1-3-6(4-2)5-13-7(10)9-14(8,11)12/h6H,3-5H2,1-2H3,(H,9,10)(H2,8,11,12)",KWOASAPABPGJSS-UHFFFAOYSA-N,CCC(CC)COC(=O)N[S](N)(=O)=O,-1.7487
4327,B-4328,"carbamic acid, sulfamoyl-, butyl ester","InChI=1S/C5H12N2O4S/c1-2-3-4-11-5(8)7-12(6,9)10/h2-4H2,1H3,(H,7,8)(H2,6,9,10)",GFBKOADVXIDVBA-UHFFFAOYSA-N,CCCCOC(=O)N[S](N)(=O)=O,-1.0375
4328,B-4329,"carbamic acid, sulfamoyl-, 2-ethylhexyl ester","InChI=1S/C9H20N2O4S/c1-3-5-6-8(4-2)7-15-9(12)11-16(10,13)14/h8H,3-7H2,1-2H3,(H,11,12)(H2,10,13,14)",VBQMNYJZEYFKPQ-UHFFFAOYSA-N,CCCCC(CC)COC(=O)N[S](N)(=O)=O,-2.4019999999999997
4329,B-4330,bentazone,"InChI=1S/C10H12N2O3S/c1-7(2)12-10(13)8-5-3-4-6-9(8)11-16(12,14)15/h3-7,11H,1-2H3",ZOMSMJKLGFBRBS-UHFFFAOYSA-N,CC(C)N1C(=O)c2ccccc2N[S]1(=O)=O,-2.6817
4330,B-4331,"1,3-benzodioxole-5-acetic acid, .alpha.-oxo-","InChI=1S/C9H6O5/c10-8(9(11)12)5-1-2-6-7(3-5)14-4-13-6/h1-3H,4H2,(H,11,12)",VIIPQXJHKXQJKY-UHFFFAOYSA-N,OC(=O)C(=O)c1ccc2OCOc2c1,-1.1912
4331,B-4332,"phenanthrene-9,10-dione",InChI=1S/C14H8O2/c15-13-11-7-3-1-5-9(11)10-6-2-4-8-12(10)14(13)16/h1-8H,YYVYAPXYZVYDHN-UHFFFAOYSA-N,O=C1C(=O)c2ccccc2c3ccccc13,-4.4435
4332,B-4333,"1,3-benzenedicarboxylic acid, 2-(carboxycarbonyl)-","InChI=1S/C10H6O7/c11-7(10(16)17)6-4(8(12)13)2-1-3-5(6)9(14)15/h1-3H,(H,12,13)(H,14,15)(H,16,17)",MKKVMUPZRDPRHL-UHFFFAOYSA-N,OC(=O)C(=O)c1c(cccc1C(O)=O)C(O)=O,-0.4541
4333,B-4334,thioacetamide,"InChI=1S/C2H5NS/c1-2(3)4/h1H3,(H2,3,4)",YUKQRDCYNOVPGJ-UHFFFAOYSA-N,CC(N)=S,0.3364
4334,B-4335,"3-pyrazoline-5-thione, 1,3-dimethyl-2-phenyl-","InChI=1S/C11H12N2S/c1-9-8-11(14)12(2)13(9)10-6-4-3-5-7-10/h3-8H,1-2H3",FXJSXNAIOUCSPT-UHFFFAOYSA-N,CN1N(C(=CC1=S)C)c2ccccc2,-1.6668
4335,B-4336,"S-(1,2-Dichlorovinyl)-L-cysteine","InChI=1S/C5H7Cl2NO2S/c6-1-4(7)11-2-3(8)5(9)10/h1,3H,2,8H2,(H,9,10)/b4-1+/t3-/m0/s1",PJIHCWJOTSJIPQ-AGFFZDDWSA-N,N[C@@H](CSC(/Cl)=C/Cl)C(O)=O,-1.4895
4336,B-4337,"2-propanone, 1-(4,5-dihydro-2-thiazolyl)-","InChI=1S/C6H9NOS/c1-5(8)4-6-7-2-3-9-6/h2-4H2,1H3",WHJUKZVLAVJEJZ-UHFFFAOYSA-N,CC(=O)CC1=NCCS1,-1.156
4337,B-4338,"methanamine, 1-(trimethylsilyl)-","InChI=1S/C4H13NSi/c1-6(2,3)4-5/h4-5H2,1-3H3",YVWPNDBYAAEZBF-UHFFFAOYSA-N,C[Si](C)(C)CN,-1.7619999999999998
4338,B-4339,"ethanamine, 2-(trimethylsilyl)-","InChI=1S/C5H15NSi/c1-7(2,3)5-4-6/h4-6H2,1-3H3",NIBXVTMWHMMKGV-UHFFFAOYSA-N,C[Si](C)(C)CCN,-1.807
4339,B-4340,tetramethylsilane,"InChI=1S/C4H12Si/c1-5(2,3)4/h1-4H3",CZDYPVPMEAXLPK-UHFFFAOYSA-N,C[Si](C)(C)C,-3.6534
4340,B-4341,tetraethylsilane,"InChI=1S/C8H20Si/c1-5-9(6-2,7-3)8-4/h5-8H2,1-4H3",VCZQFJFZMMALHB-UHFFFAOYSA-N,CC[Si](CC)(CC)CC,-5.6475
4341,B-4342,"(2,4-dimethylphenyl)phosphonic acid","InChI=1S/C8H11O3P/c1-6-3-4-8(7(2)5-6)12(9,10)11/h3-5H,1-2H3,(H2,9,10,11)",DLXVLBCCGRQAAA-UHFFFAOYSA-N,Cc1ccc(c(C)c1)[P](O)(O)=O,-1.0938
4342,B-4343,phenylphosphonic acid,"InChI=1S/C6H7O3P/c7-10(8,9)6-4-2-1-3-5-6/h1-5H,(H2,7,8,9)",QLZHNIAADXEJJP-UHFFFAOYSA-N,O[P](O)(=O)c1ccccc1,0.0798
4343,B-4344,ethephon,"InChI=1S/C2H6ClO3P/c3-1-2-7(4,5)6/h1-2H2,(H2,4,5,6)",UDPGUMQDCGORJQ-UHFFFAOYSA-N,O[P](O)(=O)CCCl,0.8401
4344,B-4345,"phosphonic acid, 1-naphthalenyl-","InChI=1S/C10H9O3P/c11-14(12,13)10-7-3-5-8-4-1-2-6-9(8)10/h1-7H,(H2,11,12,13)",YOOYVODKUBZAPO-UHFFFAOYSA-N,O[P](O)(=O)c1cccc2ccccc12,-1.6194
4345,B-4346,paraquat dichloride,"InChI=1S/C12H14N2.2ClH/c1-13-7-3-11(4-8-13)12-5-9-14(2)10-6-12;;/h3-10H,1-2H3;2*1H/q+2;;/p-2",FIKAKWIAUPDISJ-UHFFFAOYSA-L,[Cl-].[Cl-].C[n+]1ccc(cc1)c2cc[n+](C)cc2,0.4349
4346,B-4347,diquat dibromide,"InChI=1S/C12H12N2.2BrH/c1-3-7-13-9-10-14-8-4-2-6-12(14)11(13)5-1;;/h1-8H,9-10H2;2*1H/q+2;;/p-2",ODPOAESBSUKMHD-UHFFFAOYSA-L,[Br-].[Br-].C1C[n+]2ccccc2c3cccc[n+]13,0.3133
4347,B-4348,furathiocarb,"InChI=1S/C18H26N2O5S/c1-6-7-11-23-16(21)19(4)26-20(5)17(22)24-14-10-8-9-13-12-18(2,3)25-15(13)14/h8-10H,6-7,11-12H2,1-5H3",HAWJXYBZNNRMNO-UHFFFAOYSA-N,CCCCOC(=O)N(C)SN(C)C(=O)Oc1cccc2CC(C)(C)Oc12,-4.5412
4348,B-4349,benfuracarb,"InChI=1S/C20H30N2O5S/c1-7-25-17(23)11-12-22(14(2)3)28-21(6)19(24)26-16-10-8-9-15-13-20(4,5)27-18(15)16/h8-10,14H,7,11-13H2,1-6H3",FYZBOYWSHKHDMT-UHFFFAOYSA-N,CCOC(=O)CCN(SN(C)C(=O)Oc1cccc2CC(C)(C)Oc12)C(C)C,-4.7103
4349,B-4350,carbosulfan,"InChI=1S/C20H32N2O3S/c1-6-8-13-22(14-9-7-2)26-21(5)19(23)24-17-12-10-11-16-15-20(3,4)25-18(16)17/h10-12H,6-9,13-15H2,1-5H3",JLQUFIHWVLZVTJ-UHFFFAOYSA-N,CCCCN(CCCC)SN(C)C(=O)Oc1cccc2CC(C)(C)Oc12,-6.1033
4350,B-4351,phenylmercuric acetate,"InChI=1S/C6H5.C2H4O2.Hg/c1-2-4-6-5-3-1;1-2(3)4;/h1-5H;1H3,(H,3,4);/q;;+1/p-1",XEBWQGVWTUSTLN-UHFFFAOYSA-M,CC(=O)O[Hg]c1ccccc1,-1.8868
4351,B-4352,2-methoxyethyl mercuric chloride,"InChI=1S/C3H7O.ClH.Hg/c1-3-4-2;;/h1,3H2,2H3;1H;/q;;+1/p-1",VJTAZCKMHINUKO-UHFFFAOYSA-M,[Cl-].COCC[Hg+],-0.7709999999999999
4352,B-4353,mercuric acetate,"InChI=1S/2C2H4O2.Hg/c2*1-2(3)4;/h2*1H3,(H,3,4);/q;;+2/p-2",BRMYZIKAHFEUFJ-UHFFFAOYSA-L,[Hg++].CC([O-])=O.CC([O-])=O,-0.1054
4353,B-4354,formaldehyde,InChI=1S/CH2O/c1-2/h1H2,WSFSSNUMVMOOMR-UHFFFAOYSA-N,C=O,1.1206
4354,B-4355,diacetylene,InChI=1S/C4H2/c1-3-4-2/h1-2H,LLCSWKVOHICRDD-UHFFFAOYSA-N,C#CC#C,-0.7241
4355,B-4356,carbon disulfide,InChI=1S/CS2/c2-1-3,QGJOPFRUJISHPQ-UHFFFAOYSA-N,S=C=S,-1.8097
4356,B-4357,2(3h)-thiophenone,"InChI=1S/C4H4OS/c5-4-2-1-3-6-4/h1,3H,2H2",NKAMYGXYCWMPTC-UHFFFAOYSA-N,O=C1CC=CS1,-0.2225
4357,B-4358,diethyl sulfate,"InChI=1S/C4H10O4S/c1-3-7-9(5,6)8-4-2/h3-4H2,1-2H3",DENRZWYUOJLTMF-UHFFFAOYSA-N,CCO[S](=O)(=O)OCC,-1.3430000000000002
4358,B-4359,dimethylsulfate,"InChI=1S/C2H6O4S/c1-5-7(3,4)6-2/h1-2H3",VAYGXNSJCAHWJZ-UHFFFAOYSA-N,CO[S](=O)(=O)OC,-0.6537
4359,B-4360,"1-phenylpropane-1,2-dione","InChI=1S/C9H8O2/c1-7(10)9(11)8-5-3-2-4-6-8/h2-6H,1H3",BVQVLAIMHVDZEL-UHFFFAOYSA-N,CC(=O)C(=O)c1ccccc1,-1.7558
4360,B-4361,"2,3-butanedione",InChI=1S/C4H6O2/c1-3(5)4(2)6/h1-2H3,QSJXEFYPDANLFS-UHFFFAOYSA-N,CC(=O)C(C)=O,0.3661
4361,B-4362,"pentane-2,3-dione","InChI=1S/C5H8O2/c1-3-5(7)4(2)6/h3H2,1-2H3",TZMFJUDUGYTVRY-UHFFFAOYSA-N,CCC(=O)C(C)=O,-0.1764
4362,B-4363,hexanebis(thioic) acid,"InChI=1S/C6H10O2S2/c7-5(9)3-1-2-4-6(8)10/h1-4H2,(H,7,9)(H,8,10)",ICTIVTCHZRVVQR-UHFFFAOYSA-N,SC(=O)CCCCC(S)=O,-1.7326
4363,B-4364,diethyl carbonate,"InChI=1S/C5H10O3/c1-3-7-5(6)8-4-2/h3-4H2,1-2H3",OIFBSDVPJOWBCH-UHFFFAOYSA-N,CCOC(=O)OCC,-0.7982
4364,B-4365,"propanoic acid,2-[(meo-carbonyl)oxy]-, me ester","InChI=1S/C6H10O5/c1-4(5(7)9-2)11-6(8)10-3/h4H,1-3H3",YYQQVTLVYLTGPR-UHFFFAOYSA-N,COC(=O)OC(C)C(=O)OC,-0.6003
4365,B-4366,phoxim,"InChI=1S/C12H15N2O3PS/c1-3-15-18(19,16-4-2)17-14-12(10-13)11-8-6-5-7-9-11/h5-9H,3-4H2,1-2H3/b14-12+",ATROHALUCMTWTB-WYMLVPIESA-N,CCO[P](=S)(OCC)O\N=C(C#N)\c1ccccc1,-4.8619
4366,B-4367,chlorphoxim,"InChI=1S/C12H14ClN2O3PS/c1-3-16-19(20,17-4-2)18-15-12(9-14)10-7-5-6-8-11(10)13/h5-8H,3-4H2,1-2H3/b15-12+",GQKRUMZWUHSLJF-NTCAYCPXSA-N,CCO[P](=S)(OCC)O/N=C(C#N)/c1ccccc1Cl,-5.2917