,ID,Name,InChI,InChIKey,SMILES,Solubility
2979,B-2980,chlorethoxyfos,"InChI=1S/C6H11Cl4O3PS/c1-3-11-14(15,12-4-2)13-5(7)6(8,9)10/h5H,3-4H2,1-2H3",XFDJMIHUAHSGKG-UHFFFAOYSA-N,CCO[P](=S)(OCC)OC(Cl)C(Cl)(Cl)Cl,-5.5263
2980,B-2981,"2-pyrrolidinone, 1-nitroso-",InChI=1S/C4H6N2O2/c7-4-2-1-3-6(4)5-8/h1-3H2,KLZYCEYOOVIITI-UHFFFAOYSA-N,O=NN1CCCC1=O,0.0523
2981,B-2982,"d-alloisoleucine, n-acetyl-","InChI=1S/C8H15NO3/c1-4-5(2)7(8(11)12)9-6(3)10/h5,7H,4H2,1-3H3,(H,9,10)(H,11,12)/t5-,7+/m0/s1",JDTWZSUNGHMMJM-CAHLUQPWSA-N,CC[C@H](C)[C@@H](NC(C)=O)C(O)=O,-0.5912
2982,B-2983,"1,3-benzenediol, 5-(methylthio)-","InChI=1S/C7H8O2S/c1-10-7-3-5(8)2-6(9)4-7/h2-4,8-9H,1H3",QHMRZVIHLYUTOF-UHFFFAOYSA-N,CSc1cc(O)cc(O)c1,-1.7957
2983,B-2984,"1,3-benzenediol, 5-(butylthio)-","InChI=1S/C10H14O2S/c1-2-3-4-13-10-6-8(11)5-9(12)7-10/h5-7,11-12H,2-4H2,1H3",OBUQICZSPJTRQI-UHFFFAOYSA-N,CCCCSc1cc(O)cc(O)c1,-2.5191
2984,B-2985,"d-norleucine, n-acetyl-","InChI=1S/C8H15NO3/c1-3-4-5-7(8(11)12)9-6(2)10/h7H,3-5H2,1-2H3,(H,9,10)(H,11,12)",JDMCEGLQFSOMQH-UHFFFAOYSA-N,CCCCC(NC(C)=O)C(O)=O,-0.3443
2985,B-2986,bitertanol,"InChI=1S/C20H23N3O2/c1-20(2,3)18(24)19(23-14-21-13-22-23)25-17-11-9-16(10-12-17)15-7-5-4-6-8-15/h4-14,18-19,24H,1-3H3",VGPIBGGRCVEHQZ-UHFFFAOYSA-N,CC(C)(C)C(O)C(Oc1ccc(cc1)c2ccccc2)n3cncn3,-4.8292
2986,B-2987,"2,2',3,4,6-pentachlorobiphenyl",InChI=1S/C12H5Cl5/c13-7-4-2-1-3-6(7)10-8(14)5-9(15)11(16)12(10)17/h1-5H,QGDKRLQRLFUJPP-UHFFFAOYSA-N,Clc1ccccc1c2c(Cl)cc(Cl)c(Cl)c2Cl,-7.4346
2987,B-2988,triadimenol,"InChI=1S/C14H18ClN3O2/c1-14(2,3)12(19)13(18-9-16-8-17-18)20-11-6-4-10(15)5-7-11/h4-9,12-13,19H,1-3H3",BAZVSMNPJJMILC-UHFFFAOYSA-N,CC(C)(C)C(O)C(Oc1ccc(Cl)cc1)n2cncn2,-3.3918
2988,B-2989,propentofylline,"InChI=1S/C15H22N4O3/c1-4-8-18-10-16-13-12(18)14(21)19(15(22)17(13)3)9-6-5-7-11(2)20/h10H,4-9H2,1-3H3",RBQOQRRFDPXAGN-UHFFFAOYSA-N,CCCn1cnc2N(C)C(=O)N(CCCCC(C)=O)C(=O)c12,-0.9811
2989,B-2990,praziquantel,"InChI=1S/C19H24N2O2/c22-18-13-20(19(23)15-7-2-1-3-8-15)12-17-16-9-5-4-6-14(16)10-11-21(17)18/h4-6,9,15,17H,1-3,7-8,10-13H2",FSVJFNAIGNNGKK-UHFFFAOYSA-N,O=C1CN(CC2N1CCc3ccccc23)C(=O)C4CCCCC4,-2.8927
2990,B-2991,ethalfluralin,"InChI=1S/C13H14F3N3O4/c1-4-17(7-8(2)3)12-10(18(20)21)5-9(13(14,15)16)6-11(12)19(22)23/h5-6H,2,4,7H2,1,3H3",PTFJIKYUEPWBMS-UHFFFAOYSA-N,CCN(CC(C)=C)c1c(cc(cc1[N+]([O-])=O)C(F)(F)F)[N+]([O-])=O,-6.0457
2991,B-2992,dimethipin,"InChI=1S/C6H10O4S2/c1-5-6(2)12(9,10)4-3-11(5,7)8/h3-4H2,1-2H3",PHVNLLCAQHGNKU-UHFFFAOYSA-N,CC1=C(C)[S](=O)(=O)CC[S]1(=O)=O,-1.66
2992,B-2993,"2,2',3,4,5-pentachlorobiphenyl",InChI=1S/C12H5Cl5/c13-8-4-2-1-3-6(8)7-5-9(14)11(16)12(17)10(7)15/h1-5H,AIURIRUDHVDRFQ-UHFFFAOYSA-N,Clc1ccccc1c2cc(Cl)c(Cl)c(Cl)c2Cl,-7.5226
2993,B-2994,"phosphoric acid, ethyl dipropyl ester","InChI=1S/C8H19O4P/c1-4-7-11-13(9,10-6-3)12-8-5-2/h4-8H2,1-3H3",ANPYQJSSFZGXFE-UHFFFAOYSA-N,CCCO[P](=O)(OCC)OCCC,-0.9802
2994,B-2995,triclopyr,"InChI=1S/C7H4Cl3NO3/c8-3-1-4(9)7(11-6(3)10)14-2-5(12)13/h1H,2H2,(H,12,13)",REEQLXCGVXDJSQ-UHFFFAOYSA-N,OC(=O)COc1nc(Cl)c(Cl)cc1Cl,-2.7656
2995,B-2996,buthidazole,"InChI=1S/C10H16N4O2S/c1-10(2,3)7-11-12-8(17-7)14-6(15)5-13(4)9(14)16/h6,15H,5H2,1-4H3",SWMGXKSQWDSBKV-UHFFFAOYSA-N,CN1CC(O)N(C1=O)c2sc(nn2)C(C)(C)C,-1.8773
2996,B-2997,pyridate,"InChI=1S/C19H23ClN2O2S/c1-2-3-4-5-6-10-13-25-19(23)24-16-14-17(20)21-22-18(16)15-11-8-7-9-12-15/h7-9,11-12,14H,2-6,10,13H2,1H3",JTZCTMAVMHRNTR-UHFFFAOYSA-N,CCCCCCCCSC(=O)Oc1cc(Cl)nnc1c2ccccc2,-5.4025
2997,B-2998,"3,4-dichlorodiphenyl ether",InChI=1S/C12H8Cl2O/c13-11-7-6-10(8-12(11)14)15-9-4-2-1-3-5-9/h1-8H,QFQLZVAAQOJUFS-UHFFFAOYSA-N,Clc1ccc(Oc2ccccc2)cc1Cl,-4.7206
2998,B-2999,"2,3,6-trichlorobiphenyl",InChI=1S/C12H7Cl3/c13-9-6-7-10(14)12(15)11(9)8-4-2-1-3-5-8/h1-7H,LVROLHVSYNLFBE-UHFFFAOYSA-N,Clc1ccc(Cl)c(c2ccccc2)c1Cl,-6.4902
2999,B-3000,"2,3,4-trichloro-1,1'-biphenyl",InChI=1S/C12H7Cl3/c13-10-7-6-9(11(14)12(10)15)8-4-2-1-3-5-8/h1-7H,IUYHQGMDSZOPDZ-UHFFFAOYSA-N,Clc1ccc(c2ccccc2)c(Cl)c1Cl,-6.1799
3000,B-3001,"1,3,7-trichloronaphthalene",InChI=1S/C10H5Cl3/c11-7-2-1-6-3-8(12)5-10(13)9(6)4-7/h1-5H,CFEUGIGSIREATC-UHFFFAOYSA-N,Clc1ccc2cc(Cl)cc(Cl)c2c1,-6.5557
3001,B-3002,"2,3,6-trichloronaphthalene",InChI=1S/C10H5Cl3/c11-8-2-1-6-4-9(12)10(13)5-7(6)3-8/h1-5H,ZYTLBFKRYKUCMJ-UHFFFAOYSA-N,Clc1ccc2cc(Cl)c(Cl)cc2c1,-7.1419
3002,B-3003,"1,4,6,7-tetrachloronaphthalene",InChI=1S/C10H4Cl4/c11-7-1-2-8(12)6-4-10(14)9(13)3-5(6)7/h1-4H,VJZRCIYSYVGDMU-UHFFFAOYSA-N,Clc1ccc(Cl)c2cc(Cl)c(Cl)cc12,-7.5163
3003,B-3004,mepronil,"InChI=1S/C17H19NO2/c1-12(2)20-15-9-6-8-14(11-15)18-17(19)16-10-5-4-7-13(16)3/h4-12H,1-3H3,(H,18,19)",BCTQJXQXJVLSIG-UHFFFAOYSA-N,CC(C)Oc1cccc(NC(=O)c2ccccc2C)c1,-4.3265
3004,B-3005,isouron,"InChI=1S/C10H17N3O2/c1-10(2,3)7-6-8(12-15-7)11-9(14)13(4)5/h6H,1-5H3,(H,11,12,14)",JLLJHQLUZAKJFH-UHFFFAOYSA-N,CN(C)C(=O)Nc1cc(on1)C(C)(C)C,-2.4272
3005,B-3006,sufentanil,"InChI=1S/C22H30N2O2S/c1-3-21(25)24(19-8-5-4-6-9-19)22(18-26-2)12-15-23(16-13-22)14-11-20-10-7-17-27-20/h4-10,17H,3,11-16,18H2,1-2H3",GGCSSNBKKAUURC-UHFFFAOYSA-N,CCC(=O)N(c1ccccc1)C2(CCN(CCc3sccc3)CC2)COC,-3.7064
3006,B-3007,"2,2',3,4,4',6-hexachlorobiphenyl",InChI=1S/C12H4Cl6/c13-5-1-2-6(7(14)3-5)10-8(15)4-9(16)11(17)12(10)18/h1-4H,SPOPSCCFZQFGDL-UHFFFAOYSA-N,Clc1ccc(c(Cl)c1)c2c(Cl)cc(Cl)c(Cl)c2Cl,-7.4721
3007,B-3008,"2-heptanol, 4-methyl-","InChI=1S/C8H18O/c1-4-5-7(2)6-8(3)9/h7-9H,4-6H2,1-3H3",GUHWHNUGIGOSCN-UHFFFAOYSA-N,CCCC(C)CC(C)O,-1.8779
3008,B-3009,flurprimidol,"InChI=1S/C15H15F3N2O2/c1-10(2)14(21,12-7-19-9-20-8-12)11-3-5-13(6-4-11)22-15(16,17)18/h3-10,21H,1-2H3",VEVZCONIUDBCDC-UHFFFAOYSA-N,CC(C)C(O)(c1ccc(OC(F)(F)F)cc1)c2cncnc2,-3.4377
3009,B-3010,"benzenepropanal, .alpha.-oxo-","InChI=1S/C9H8O2/c10-7-9(11)6-8-4-2-1-3-5-8/h1-5,7H,6H2",OFMBSIAKTAZWIE-UHFFFAOYSA-N,O=CC(=O)Cc1ccccc1,-2.1707
3010,B-3011,"2,2',4,6,6'-pentachlorobiphenyl",InChI=1S/C12H5Cl5/c13-6-4-9(16)12(10(17)5-6)11-7(14)2-1-3-8(11)15/h1-5H,MTCPZNVSDFCBBE-UHFFFAOYSA-N,Clc1cc(Cl)c(c(Cl)c1)c2c(Cl)cccc2Cl,-7.316
3011,B-3012,"2,3',4,4',6-pentachlorobiphenyl",InChI=1S/C12H5Cl5/c13-7-4-10(16)12(11(17)5-7)6-1-2-8(14)9(15)3-6/h1-5H,OAEQTHQGPZKTQP-UHFFFAOYSA-N,Clc1cc(Cl)c(c(Cl)c1)c2ccc(Cl)c(Cl)c2,-7.91
3012,B-3013,"1,1'-biphenyl, 2,3',4,5',6-pentachloro-",InChI=1S/C12H5Cl5/c13-7-1-6(2-8(14)3-7)12-10(16)4-9(15)5-11(12)17/h1-5H,XBVSGJGMWSKAKL-UHFFFAOYSA-N,Clc1cc(Cl)c(c(Cl)c1)c2cc(Cl)cc(Cl)c2,-7.92
3013,B-3014,"1(2h)-pyrimidinecarboxamide, 5-fluoro-3,4-dichlo","InChI=1S/C11H8FN3O3/c12-8-6-15(11(18)14-9(8)16)10(17)13-7-4-2-1-3-5-7/h1-6H,(H,13,17)(H,14,16,18)",PXXNTSRWKSCFCK-UHFFFAOYSA-N,FC1=CN(C(=O)NC1=O)C(=O)Nc2ccccc2,-1.6184
3014,B-3015,"1(2h)-pyrimidinecarboxamide, 5-fluoro-3,4-dihydr","InChI=1S/C6H6FN3O3/c1-8-5(12)10-2-3(7)4(11)9-6(10)13/h2H,1H3,(H,8,12)(H,9,11,13)",CDACFMJJRHUMNA-UHFFFAOYSA-N,CNC(=O)N1C=C(F)C(=O)NC1=O,-2.4798
3015,B-3016,t-butylphenyl diphenyl phosphate,"InChI=1S/C22H23O4P/c1-22(2,3)18-14-16-21(17-15-18)26-27(23,24-19-10-6-4-7-11-19)25-20-12-8-5-9-13-20/h4-17H,1-3H3",ULGAVXUJJBOWOD-UHFFFAOYSA-N,CC(C)(C)c1ccc(O[P](=O)(Oc2ccccc2)Oc3ccccc3)cc1,-5.0774
3016,B-3017,tolclofos-methyl,"InChI=1S/C9H11Cl2O3PS/c1-6-4-7(10)9(8(11)5-6)14-15(16,12-2)13-3/h4-5H,1-3H3",OBZIQQJJIKNWNO-UHFFFAOYSA-N,CO[P](=S)(OC)Oc1c(Cl)cc(C)cc1Cl,-5.4374
3017,B-3018,isomethiozin,"InChI=1S/C12H20N4OS/c1-8(2)7-13-16-10(17)9(12(3,4)5)14-15-11(16)18-6/h7-8H,1-6H3/b13-7+",MZTLOILRKLUURT-NTUHNPAUSA-N,CSC1=NN=C(C(=O)N1\N=C\C(C)C)C(C)(C)C,-4.4288
3018,B-3019,"3,4,5-trichloro-2-methoxyphenol","InChI=1S/C7H5Cl3O2/c1-12-7-4(11)2-3(8)5(9)6(7)10/h2,11H,1H3",RKEHLKXRUVUBJN-UHFFFAOYSA-N,COc1c(O)cc(Cl)c(Cl)c1Cl,-2.8712
3019,B-3020,"2,3,4,7,8-pentachlorodibenzofuran",InChI=1S/C12H3Cl5O/c13-6-1-4-5-2-8(15)10(16)11(17)12(5)18-9(4)3-7(6)14/h1-3H,OGBQILNBLMPPDP-UHFFFAOYSA-N,Clc1cc2oc3c(Cl)c(Cl)c(Cl)cc3c2cc1Cl,-9.1609
3020,B-3021,"1(3h)-isobenzofuranone, 6-amino-","InChI=1S/C8H7NO2/c9-6-2-1-5-4-11-8(10)7(5)3-6/h1-3H,4,9H2",ZIJZDNKZJZUROE-UHFFFAOYSA-N,Nc1ccc2COC(=O)c2c1,-2.0414
3021,B-3022,pyroquilon,"InChI=1S/C11H11NO/c13-10-5-4-8-2-1-3-9-6-7-12(10)11(8)9/h1-3H,4-7H2",XRJLAOUDSILTFT-UHFFFAOYSA-N,O=C1CCc2cccc3CCN1c23,-1.6365
3022,B-3023,phenisopham,"InChI=1S/C19H22N2O4/c1-4-21(16-10-6-5-7-11-16)19(23)25-17-12-8-9-15(13-17)20-18(22)24-14(2)3/h5-14H,4H2,1-3H3,(H,20,22)",PWEOEHNGYFXZLI-UHFFFAOYSA-N,CCN(C(=O)Oc1cccc(NC(=O)OC(C)C)c1)c2ccccc2,-5.0574
3023,B-3024,fluotrimazole,"InChI=1S/C22H16F3N3/c23-22(24,25)20-13-7-12-19(14-20)21(28-16-26-15-27-28,17-8-3-1-4-9-17)18-10-5-2-6-11-18/h1-16H",LXMQMMSGERCRSU-UHFFFAOYSA-N,FC(F)(F)c1cccc(c1)C(n2cncn2)(c3ccccc3)c4ccccc4,-8.402999999999999
3024,B-3025,"acetamide, n-[2-(benzoyloxy)ethyl]-n-methyl-","InChI=1S/C12H15NO3/c1-10(14)13(2)8-9-16-12(15)11-6-4-3-5-7-11/h3-7H,8-9H2,1-2H3",XPLCQMPBJPQJNU-UHFFFAOYSA-N,CN(CCOC(=O)c1ccccc1)C(C)=O,-0.8494
3025,B-3026,furalaxyl,"InChI=1S/C17H19NO4/c1-11-7-5-8-12(2)15(11)18(13(3)17(20)21-4)16(19)14-9-6-10-22-14/h5-10,13H,1-4H3",CIEXPHRYOLIQQD-UHFFFAOYSA-N,COC(=O)C(C)N(C(=O)c1occc1)c2c(C)cccc2C,-3.1173
3026,B-3027,metalaxyl,"InChI=1S/C15H21NO4/c1-10-7-6-8-11(2)14(10)16(13(17)9-19-4)12(3)15(18)20-5/h6-8,12H,9H2,1-5H3",ZQEIXNIJLIKNTD-UHFFFAOYSA-N,COCC(=O)N(C(C)C(=O)OC)c1c(C)cccc1C,-1.5219
3027,B-3028,cymoxanil,"InChI=1S/C7H10N4O3/c1-3-9-7(13)10-6(12)5(4-8)11-14-2/h3H2,1-2H3,(H2,9,10,12,13)/b11-5+",XERJKGMBORTKEO-VZUCSPMQSA-N,CCNC(=O)NC(=O)\C(=N\OC)C#N,-2.3477
3028,B-3029,flamprop-m-isopropyl,"InChI=1S/C19H19ClFNO3/c1-12(2)25-19(24)13(3)22(15-9-10-17(21)16(20)11-15)18(23)14-7-5-4-6-8-14/h4-13H,1-3H3/t13-/m0/s1",IKVXBIIHQGXQRQ-ZDUSSCGKSA-N,CC(C)OC(=O)[C@H](C)N(C(=O)c1ccccc1)c2ccc(F)c(Cl)c2,-4.4817
3029,B-3030,"benzenamine, 4-methyl-2-[(4-methylphenyl)azo]-","InChI=1S/C14H15N3/c1-10-3-6-12(7-4-10)16-17-14-9-11(2)5-8-13(14)15/h3-9H,15H2,1-2H3",BBVUAJTZGSWJDD-UHFFFAOYSA-N,Cc1ccc(cc1)N=Nc2cc(C)ccc2N,-3.9031
3030,B-3031,"2,4(3h,5h)-pyrimidinedione, 6-amino-5,5-diethyl-","InChI=1S/C8H13N3O2/c1-3-8(4-2)5(9)10-7(13)11-6(8)12/h3-4H2,1-2H3,(H3,9,10,11,12,13)",SSNMPSGFZBQHKA-UHFFFAOYSA-N,CCC1(CC)C(=NC(=O)NC1=O)N,-1.3967
3031,B-3032,"1(3h)-isobenzofuranone, 3-methyl-6-nitro-","InChI=1S/C9H7NO4/c1-5-7-3-2-6(10(12)13)4-8(7)9(11)14-5/h2-5H,1H3",DJBQBNLHDSCAJI-UHFFFAOYSA-N,CC1OC(=O)c2cc(ccc12)[N+]([O-])=O,-2.6157
3032,B-3033,"4'-(Bis(2-hydroxyethyl)amino)-2,6-dichloro-2'-methyl-4-nitroazobenzene","InChI=1S/C17H18Cl2N4O4/c1-11-8-12(22(4-6-24)5-7-25)2-3-16(11)20-21-17-14(18)9-13(23(26)27)10-15(17)19/h2-3,8-10,24-25H,4-7H2,1H3",VJCRGIYTUNCUJU-UHFFFAOYSA-N,Cc1cc(ccc1N=Nc2c(Cl)cc(cc2Cl)[N+]([O-])=O)N(CCO)CCO,-5.9592
3033,B-3034,"benzenesulfonic acid, 3-amino-2,4,6-tribromo-","InChI=1S/C6H4Br3NO3S/c7-2-1-3(8)6(14(11,12)13)4(9)5(2)10/h1H,10H2,(H,11,12,13)",UDUMKWWIWPPSHW-UHFFFAOYSA-N,Nc1c(Br)cc(Br)c(c1Br)[S](O)(=O)=O,-0.4888
3034,B-3035,flamprop,"InChI=1S/C16H13ClFNO3/c1-10(16(21)22)19(12-7-8-14(18)13(17)9-12)15(20)11-5-3-2-4-6-11/h2-10H,1H3,(H,21,22)",YQVMVCCFZCMYQB-UHFFFAOYSA-N,CC(N(c1ccc(F)c(Cl)c1)C(=O)c2ccccc2)C(O)=O,-4.2474
3035,B-3036,ofurace,"InChI=1S/C14H16ClNO3/c1-9-4-3-5-10(2)13(9)16(12(17)8-15)11-6-7-19-14(11)18/h3-5,11H,6-8H2,1-2H3",OWDLFBLNMPCXSD-UHFFFAOYSA-N,Cc1cccc(C)c1N(C2CCOC2=O)C(=O)CCl,-3.2855
3036,B-3037,ranimustine,"InChI=1S/C10H18ClN3O7/c1-20-9-8(17)7(16)6(15)5(21-9)4-12-10(18)14(13-19)3-2-11/h5-9,15-17H,2-4H2,1H3,(H,12,18)",AHHFEZNOXOZZQA-UHFFFAOYSA-N,COC1OC(CNC(=O)N(CCCl)N=O)C(O)C(O)C1O,-1.5613
3037,B-3038,"2,4,4'-trichlorodiphenyl ether",InChI=1S/C12H7Cl3O/c13-8-1-4-10(5-2-8)16-12-6-3-9(14)7-11(12)15/h1-7H,PIORTDHJOLELKR-UHFFFAOYSA-N,Clc1ccc(Oc2ccc(Cl)cc2Cl)cc1,-6.2196
3038,B-3039,"phosphoric acid, dimethyl propyl ester","InChI=1S/C5H13O4P/c1-4-5-9-10(6,7-2)8-3/h4-5H2,1-3H3",GMSOIBLTSDGVEX-UHFFFAOYSA-N,CCCO[P](=O)(OC)OC,0.4733
3039,B-3040,acyclovir,"InChI=1S/C8H11N5O3/c9-8-11-6-5(7(15)12-8)10-3-13(6)4-16-2-1-14/h3,14H,1-2,4H2,(H3,9,11,12,15)",MKUXAQIIEYXACX-UHFFFAOYSA-N,NC1=NC(=O)c2ncn(COCCO)c2N1,-2.1431
3040,B-3041,"biphenyl, 2,2',3,4,4',6'-hexachloro-",InChI=1S/C12H4Cl6/c13-5-3-8(15)10(9(16)4-5)6-1-2-7(14)12(18)11(6)17/h1-4H,XBBRGUHRZBZMPP-UHFFFAOYSA-N,Clc1cc(Cl)c(c(Cl)c1)c2ccc(Cl)c(Cl)c2Cl,-8.2399
3041,B-3042,5-methyl-hex-3-enoic acid,"InChI=1S/C7H12O2/c1-6(2)4-3-5-7(8)9/h3-4,6H,5H2,1-2H3,(H,8,9)",CIBMDQOEVWDTDT-UHFFFAOYSA-N,CC(C)C=CCC(O)=O,-1.1487
3042,B-3043,thiodicarb,"InChI=1S/C10H18N4O4S3/c1-7(19-5)11-17-9(15)13(3)21-14(4)10(16)18-12-8(2)20-6/h1-6H3/b11-7+,12-8+",XDOTVMNBCQVZKG-MKICQXMISA-N,CSC(/C)=N/OC(=O)N(C)SN(C)C(=O)O\N=C(/C)SC,-4.0055
3043,B-3044,fluridone,"InChI=1S/C19H14F3NO/c1-23-11-16(13-6-3-2-4-7-13)18(24)17(12-23)14-8-5-9-15(10-14)19(20,21)22/h2-12H,1H3",YWBVHLJPRPCRSD-UHFFFAOYSA-N,CN1C=C(c2ccccc2)C(=O)C(=C1)c3cccc(c3)C(F)(F)F,-4.4384
3044,B-3045,"2-propenoic acid, 3-(2-ethoxyphenyl)-, (e)-","InChI=1S/C11H12O3/c1-2-14-10-6-4-3-5-9(10)7-8-11(12)13/h3-8H,2H2,1H3,(H,12,13)/p-1/b8-7+",UXTDCJJEJZCEBF-BQYQJAHWSA-M,CCOc1ccccc1\C=C\C([O-])=O,-3.3248
3045,B-3046,"1,1'-biphenyl, 2,2',4,5',6-pentachloro-",InChI=1S/C12H5Cl5/c13-6-1-2-9(15)8(3-6)12-10(16)4-7(14)5-11(12)17/h1-5H,PQHZWWBJPCNNGI-UHFFFAOYSA-N,Clc1ccc(Cl)c(c1)c2c(Cl)cc(Cl)cc2Cl,-7.47
3046,B-3047,"1,1'-biphenyl, 2,2',4,4',5,6'-hexachloro-",InChI=1S/C12H4Cl6/c13-5-1-10(17)12(11(18)2-5)6-3-8(15)9(16)4-7(6)14/h1-4H,QXZHEJWDLVUFFB-UHFFFAOYSA-N,Clc1cc(Cl)c(c(Cl)c1)c2cc(Cl)c(Cl)cc2Cl,-8.1199
3047,B-3048,"1,1'-biphenyl, 2,2',3,4,4',5,6'-heptachloro-",InChI=1S/C12H3Cl7/c13-4-1-6(14)9(7(15)2-4)5-3-8(16)11(18)12(19)10(5)17/h1-3H,RXRLRYZUMSYVLS-UHFFFAOYSA-N,Clc1cc(Cl)c(c(Cl)c1)c2cc(Cl)c(Cl)c(Cl)c2Cl,-8.68
3048,B-3049,"propane, 2,2-bis(methylsulfonyl)-","InChI=1S/C5H12O4S2/c1-5(2,10(3,6)7)11(4,8)9/h1-4H3",YBSYYLRYPMFRNL-UHFFFAOYSA-N,CC(C)([S](C)(=O)=O)[S](C)(=O)=O,-1.4504
3049,B-3050,"2(1h)-pyridinone, 5-iodo-1-methyl-","InChI=1S/C6H6INO/c1-8-4-5(7)2-3-6(8)9/h2-4H,1H3",RTQZQBKEGAUQLR-UHFFFAOYSA-N,CN1C=C(I)C=CC1=O,-0.0094
3050,B-3051,iopamidol,"InChI=1S/C17H22I3N3O8/c1-6(28)15(29)23-14-12(19)9(16(30)21-7(2-24)3-25)11(18)10(13(14)20)17(31)22-8(4-26)5-27/h6-8,24-28H,2-5H2,1H3,(H,21,30)(H,22,31)(H,23,29)/t6-/m0/s1",XQZXYNRDCRIARQ-LURJTMIESA-N,C[C@H](O)C(=O)Nc1c(I)c(C(=O)NC(CO)CO)c(I)c(C(=O)NC(CO)CO)c1I,-0.7443
3051,B-3052,fenarimol,"InChI=1S/C17H12Cl2N2O/c18-14-7-5-12(6-8-14)17(22,13-9-20-11-21-10-13)15-3-1-2-4-16(15)19/h1-11,22H",NHOWDZOIZKMVAI-UHFFFAOYSA-N,OC(c1ccc(Cl)cc1)(c2cncnc2)c3ccccc3Cl,-4.374
3052,B-3053,azaconazol,"InChI=1S/C12H11Cl2N3O2/c13-9-1-2-10(11(14)5-9)12(18-3-4-19-12)6-17-8-15-7-16-17/h1-2,5,7-8H,3-4,6H2",AKNQMEBLVAMSNZ-UHFFFAOYSA-N,Clc1ccc(c(Cl)c1)C2(Cn3cncn3)OCCO2,-3.0031
3053,B-3054,propiconazole,"InChI=1S/C15H17Cl2N3O2/c1-2-3-12-7-21-15(22-12,8-20-10-18-9-19-20)13-5-4-11(16)6-14(13)17/h4-6,9-10,12H,2-3,7-8H2,1H3",STJLVHWMYQXCPB-UHFFFAOYSA-N,CCCC1COC(Cn2cncn2)(O1)c3ccc(Cl)cc3Cl,-3.4929
3054,B-3055,"1-[[2-(2,4-dichlorophenyl)-4-ethyl-1,3-dioxolan-","InChI=1S/C14H15Cl2N3O2/c1-2-11-6-20-14(21-11,7-19-9-17-8-18-19)12-4-3-10(15)5-13(12)16/h3-5,8-9,11H,2,6-7H2,1H3",DWRKFAJEBUWTQM-UHFFFAOYSA-N,CCC1COC(Cn2cncn2)(O1)c3ccc(Cl)cc3Cl,-3.613
3055,B-3056,"2,3',4,6-tetrachlorobiphenyl",InChI=1S/C12H6Cl4/c13-8-3-1-2-7(4-8)12-10(15)5-9(14)6-11(12)16/h1-6H,CKUBKYSLNCKBOI-UHFFFAOYSA-N,Clc1cccc(c1)c2c(Cl)cc(Cl)cc2Cl,-7.1547
3056,B-3057,"1,1'-biphenyl, 2,2',3,4',6'-pentachloro-",InChI=1S/C12H5Cl5/c13-6-4-9(15)11(10(16)5-6)7-2-1-3-8(14)12(7)17/h1-5H,GOFFZTAPOOICFT-UHFFFAOYSA-N,Clc1cc(Cl)c(c(Cl)c1)c2cccc(Cl)c2Cl,-7.3999
3057,B-3058,"phosphorothioic acid, o-(dichloro(methylthio)phe","InChI=1S/C11H15Cl2O3PS2/c1-4-14-17(18,15-5-2)16-8-6-9(12)11(13)10(7-8)19-3/h6-7H,4-5H2,1-3H3",SBLPWPLKGFWLKK-UHFFFAOYSA-N,CCO[P](=S)(OCC)Oc1cc(Cl)c(Cl)c(SC)c1,-6.0807
3058,B-3059,"o-diselenane-3,6-dicarboxylic acid, trans-(+)-","InChI=1S/C6H8O4Se2/c7-5(8)3-1-2-4(6(9)10)12-11-3/h3-4H,1-2H2,(H,7,8)(H,9,10)/t3-,4-/m1/s1",JAGJLCZKVMJJDA-QWWZWVQMSA-N,OC(=O)[C@H]1CC[C@@H]([Se][Se]1)C(O)=O,-2.1053
3059,B-3060,"benzeneacetic acid, .alpha.-(ethylthio)-","InChI=1S/C10H12O2S/c1-2-13-9(10(11)12)8-6-4-3-5-7-8/h3-7,9H,2H2,1H3,(H,11,12)",MMJGSXQXUWECJL-UHFFFAOYSA-N,CCSC(C(O)=O)c1ccccc1,-1.5686
3060,B-3061,furmecyclox,"InChI=1S/C14H21NO3/c1-10-9-13(11(2)18-10)14(16)15(17-3)12-7-5-4-6-8-12/h9,12H,4-8H2,1-3H3",QTDRLOKFLJJHTG-UHFFFAOYSA-N,CON(C1CCCCC1)C(=O)c2cc(C)oc2C,-5.9231
3061,B-3062,1h-imidazole-4-sulfonic acid,"InChI=1S/C3H4N2O3S/c6-9(7,8)3-1-4-2-5-3/h1-2H,(H,4,5)(H,6,7,8)",BONRIQWDXHCVOH-UHFFFAOYSA-N,O[S](=O)(=O)c1c[nH]cn1,0.1304
3062,B-3063,"glycine, n-[n-(2-bromo-1-oxopropyl)glycyl]-, (.+","InChI=1S/C7H11BrN2O4/c1-4(8)7(14)10-2-5(11)9-3-6(12)13/h4H,2-3H2,1H3,(H,9,11)(H,10,14)(H,12,13)",XDBDRCFCQAKVQM-UHFFFAOYSA-N,CC(Br)C(=O)NCC(=O)NCC(O)=O,-0.9642
3063,B-3064,flurochloridone,"InChI=1S/C12H10Cl2F3NO/c13-5-7-6-18(11(19)10(7)14)9-3-1-2-8(4-9)12(15,16)17/h1-4,7,10H,5-6H2",OQZCSNDVOWYALR-UHFFFAOYSA-N,FC(F)(F)c1cccc(c1)N2CC(CCl)C(Cl)C2=O,-3.949
3064,B-3065,"thiourea, cyano-","InChI=1S/C2H3N3S/c3-1-5-2(4)6/h(H3,4,5,6)",SSGODMHQNTWPOX-UHFFFAOYSA-N,NC(=S)NC#N,-0.0049
3065,B-3066,"2',3,4-trichlorodiphenyl ether",InChI=1S/C12H7Cl3O/c13-9-6-5-8(7-11(9)15)16-12-4-2-1-3-10(12)14/h1-7H,VBNJGYOQZAENPO-UHFFFAOYSA-N,Clc1ccc(Oc2ccccc2Cl)cc1Cl,-5.199
3066,B-3067,"propanoic acid, 2-(1-oxopropoxy)-, methyl ester","InChI=1S/C7H12O4/c1-4-6(8)11-5(2)7(9)10-3/h5H,4H2,1-3H3",QCHIRICIDKIMSH-UHFFFAOYSA-N,CCC(=O)OC(C)C(=O)OC,-0.8622
3067,B-3068,dimepiperate,"InChI=1S/C15H21NOS/c1-15(2,13-9-5-3-6-10-13)18-14(17)16-11-7-4-8-12-16/h3,5-6,9-10H,4,7-8,11-12H2,1-2H3",BWUPSGJXXPATLU-UHFFFAOYSA-N,CC(C)(SC(=O)N1CCCCC1)c2ccccc2,-4.1196
3068,B-3069,"1h-imidazole, 2-(2-methylpropyl)-","InChI=1S/C7H12N2/c1-6(2)5-7-8-3-4-9-7/h3-4,6H,5H2,1-2H3,(H,8,9)",RFXJLECGYGFJCI-UHFFFAOYSA-N,CC(C)Cc1[nH]ccn1,-1.0488
3069,B-3070,tifatol,"InChI=1S/C12H14N2S/c1-9-4-5-11(10(2)8-9)13-12-14(3)6-7-15-12/h4-8H,1-3H3",YUAUPYJCVKNAEC-UHFFFAOYSA-N,CN1C=CSC1=Nc2ccc(C)cc2C,-3.1630000000000003
3070,B-3071,"carbamimidothioic acid, trimethyl-, methyl ester",InChI=1S/C5H12N2S/c1-6-5(8-4)7(2)3/h1-4H3,CQROVVJXIYLISJ-UHFFFAOYSA-N,CSC(=NC)N(C)C,-0.4401
3071,B-3072,"2,2',3,3',4,6-hexachlorobiphenyl",InChI=1S/C12H4Cl6/c13-6-3-1-2-5(10(6)16)9-7(14)4-8(15)11(17)12(9)18/h1-4H,WDLTVNWWEZJMPF-UHFFFAOYSA-N,Clc1cccc(c1Cl)c2c(Cl)cc(Cl)c(Cl)c2Cl,-8.48
3072,B-3073,"benzamide, 2,5-dihydroxy-n-(2-hydroxyethyl)-","InChI=1S/C9H11NO4/c11-4-3-10-9(14)7-5-6(12)1-2-8(7)13/h1-2,5,11-13H,3-4H2,(H,10,14)",YNCOLLPSNIHBGO-UHFFFAOYSA-N,OCCNC(=O)c1cc(O)ccc1O,-0.5436
3073,B-3074,"1,3,6-naphthalenetrisulfonic acid, 4-amino-","InChI=1S/C10H9NO9S3/c11-10-7-3-5(21(12,13)14)1-2-6(7)8(22(15,16)17)4-9(10)23(18,19)20/h1-4H,11H2,(H,12,13,14)(H,15,16,17)(H,18,19,20)",SWHYBBGFRAEKOS-UHFFFAOYSA-N,Nc1c2cc(ccc2c(cc1[S](O)(=O)=O)[S](O)(=O)=O)[S](O)(=O)=O,-0.3188
3074,B-3075,"benzenemethanol, 2,3(or 3,4)-dichloro-, methyl c","InChI=1S/C9H9Cl2NO2/c1-12-9(13)14-5-6-3-2-4-7(10)8(6)11/h2-4H,5H2,1H3,(H,12,13)",SESJCOBCXSACPH-UHFFFAOYSA-N,CNC(=O)OCc1cccc(Cl)c1Cl,-3.1389
3075,B-3076,methacrifos,"InChI=1S/C7H13O5PS/c1-6(7(8)9-2)5-12-13(14,10-3)11-4/h5H,1-4H3/b6-5+",NTAHCMPOMKHKEU-AATRIKPKSA-N,COC(=O)C(/C)=C/O[P](=S)(OC)OC,-2.7785
3076,B-3077,"urea, n-butyl-n-phenyl","InChI=1S/C11H16N2O/c1-2-3-9-13(11(12)14)10-7-5-4-6-8-10/h4-8H,2-3,9H2,1H3,(H2,12,14)",GOGYHVOOMHFPAC-UHFFFAOYSA-N,CCCCN(C(N)=O)c1ccccc1,-1.2971
3077,B-3078,"2,2',4,6-tetrachlorobiphenyl",InChI=1S/C12H6Cl4/c13-7-5-10(15)12(11(16)6-7)8-3-1-2-4-9(8)14/h1-6H,VLLVVZDKBSYMCG-UHFFFAOYSA-N,Clc1cc(Cl)c(c(Cl)c1)c2ccccc2Cl,-6.65
3078,B-3079,fenothiocarb,"InChI=1S/C13H19NO2S/c1-14(2)13(15)17-11-7-6-10-16-12-8-4-3-5-9-12/h3-5,8-9H,6-7,10-11H2,1-2H3",HMIBKHHNXANVHR-UHFFFAOYSA-N,CN(C)C(=O)SCCCCOc1ccccc1,-3.9266
3079,B-3080,diclomezine,"InChI=1S/C11H8Cl2N2O/c1-6-8(12)4-7(5-9(6)13)10-2-3-11(16)15-14-10/h2-5H,1H3,(H,15,16)",UWQMKVBQKFHLCE-UHFFFAOYSA-N,Cc1c(Cl)cc(cc1Cl)C2=NNC(=O)C=C2,-5.5375
3080,B-3081,flumetralin,"InChI=1S/C16H12ClF4N3O4/c1-2-22(8-10-11(17)4-3-5-12(10)18)15-13(23(25)26)6-9(16(19,20)21)7-14(15)24(27)28/h3-7H,2,8H2,1H3",PWNAWOCHVWERAR-UHFFFAOYSA-N,CCN(Cc1c(F)cccc1Cl)c2c(cc(cc2[N+]([O-])=O)C(F)(F)F)[N+]([O-])=O,-6.7799
3081,B-3082,"benzeneacetonitrile, alpha-((cyanomethoxy)imino)","InChI=1S/C10H7N3O/c11-6-7-14-13-10(8-12)9-4-2-1-3-5-9/h1-5H,7H2/b13-10+",PYKLUAIDKVVEOS-JLHYYAGUSA-N,N#CCO/N=C(C#N)/c1ccccc1,-3.2899