,ID,Name,InChI,InChIKey,SMILES,Solubility
3082,B-3083,"5-pyrimidinemethanol, .alpha.-(2-chlorophenyl)-.","InChI=1S/C17H12ClFN2O/c18-16-4-2-1-3-15(16)17(22,13-9-20-11-21-10-13)12-5-7-14(19)8-6-12/h1-11,22H",SAPGTCDSBGMXCD-UHFFFAOYSA-N,OC(c1ccc(F)cc1)(c2cncnc2)c3ccccc3Cl,-4.083
3083,B-3084,"3,4,4'-trichlorodiphenyl ether",InChI=1S/C12H7Cl3O/c13-8-1-3-9(4-2-8)16-10-5-6-11(14)12(15)7-10/h1-7H,FTZDEZOARSJHGU-UHFFFAOYSA-N,Clc1ccc(Oc2ccc(Cl)c(Cl)c2)cc1,-5.6603
3084,B-3085,"pentanamide, 2-bromo-2-propyl-","InChI=1S/C8H16BrNO/c1-3-5-8(9,6-4-2)7(10)11/h3-6H2,1-2H3,(H2,10,11)",KORNHGGSVGTRLI-UHFFFAOYSA-N,CCCC(Br)(CCC)C(N)=O,-1.8281
3085,B-3086,flamprop-m-methyl,"InChI=1S/C17H15ClFNO3/c1-11(17(22)23-2)20(13-8-9-15(19)14(18)10-13)16(21)12-6-4-3-5-7-12/h3-11H,1-2H3/t11-/m1/s1",RBNIGDFIUWJJEV-LLVKDONJSA-N,COC(=O)[C@@H](C)N(C(=O)c1ccccc1)c2ccc(F)c(Cl)c2,-4.3219
3086,B-3087,flamprop-m-isopropyl,"InChI=1S/C19H19ClFNO3/c1-12(2)25-19(24)13(3)22(15-9-10-17(21)16(20)11-15)18(23)14-7-5-4-6-8-14/h4-13H,1-3H3/t13-/m1/s1",IKVXBIIHQGXQRQ-CYBMUJFWSA-N,CC(C)OC(=O)[C@@H](C)N(C(=O)c1ccccc1)c2ccc(F)c(Cl)c2,-4.4817
3087,B-3088,diofenolan,"InChI=1S/C18H20O4/c1-2-18-20-13-17(22-18)12-19-14-8-10-16(11-9-14)21-15-6-4-3-5-7-15/h3-11,17-18H,2,12-13H2,1H3/t17-,18+/m1/s1",ZDOOQPFIGYHZFV-MSOLQXFVSA-N,CC[C@H]1OC[C@@H](COc2ccc(Oc3ccccc3)cc2)O1,-4.7874
3088,B-3089,"1h-purine-2,6-dione, 3,7-dihydro-3,7-dimethyl-1-","InChI=1S/C10H14N4O2/c1-4-5-14-9(15)7-8(11-6-12(7)2)13(3)10(14)16/h6H,4-5H2,1-3H3",XJKSERUTELYNMR-UHFFFAOYSA-N,CCCN1C(=O)N(C)c2ncn(C)c2C1=O,-1.2082
3089,B-3090,"ethanamine, n,2-dichloro-n-(2-chloroethyl)-",InChI=1S/C4H8Cl3N/c5-1-3-8(7)4-2-6/h1-4H2,HEMZNEGKTOHOHW-UHFFFAOYSA-N,ClCCN(Cl)CCCl,-1.9203
3090,B-3091,cycloprothrin,"InChI=1S/C26H21Cl2NO4/c1-2-31-20-13-11-19(12-14-20)25(17-26(25,27)28)24(30)33-23(16-29)18-7-6-10-22(15-18)32-21-8-4-3-5-9-21/h3-15,23H,2,17H2,1H3",CGTWCAVZZBLHQH-UHFFFAOYSA-N,CCOc1ccc(cc1)C2(CC2(Cl)Cl)C(=O)OC(C#N)c3cccc(Oc4ccccc4)c3,-6.7243
3091,B-3092,"1-piperazinecarboxylic acid, 4,4'-methylenebis-,","InChI=1S/C15H28N4O4/c1-3-22-14(20)18-9-5-16(6-10-18)13-17-7-11-19(12-8-17)15(21)23-4-2/h3-13H2,1-2H3",UOCUDGZQFFDOMM-UHFFFAOYSA-N,CCOC(=O)N1CCN(CC1)CN2CCN(CC2)C(=O)OCC,-0.8443
3092,B-3093,"1(2h)-pyrimidinecarboxamide, n-butyl-5-fluoro-3,","InChI=1S/C9H12FN3O3/c1-2-3-4-11-8(15)13-5-6(10)7(14)12-9(13)16/h5H,2-4H2,1H3,(H,11,15)(H,12,14,16)",PVSNDBKXSKXPHM-UHFFFAOYSA-N,CCCCNC(=O)N1C=C(F)C(=O)NC1=O,-2.4464
3093,B-3094,anilofos,"InChI=1S/C13H19ClNO3PS2/c1-10(2)15(12-7-5-11(14)6-8-12)13(16)9-21-19(20,17-3)18-4/h5-8,10H,9H2,1-4H3",NXQDBZGWYSEGFL-UHFFFAOYSA-N,CO[P](=S)(OC)SCC(=O)N(C(C)C)c1ccc(Cl)cc1,-4.4321
3094,B-3095,fenpropathrin,"InChI=1S/C22H23NO3/c1-21(2)19(22(21,3)4)20(24)26-18(14-23)15-9-8-12-17(13-15)25-16-10-6-5-7-11-16/h5-13,18-19H,1-4H3",XQUXKZZNEFRCAW-UHFFFAOYSA-N,CC1(C)C(C(=O)OC(C#N)c2cccc(Oc3ccccc3)c2)C1(C)C,-7.3941
3095,B-3096,glycoursodeoxycholic acid,"InChI=1S/C26H43NO5/c1-15(4-7-22(30)27-14-23(31)32)18-5-6-19-24-20(9-11-26(18,19)3)25(2)10-8-17(28)12-16(25)13-21(24)29/h15-21,24,28-29H,4-14H2,1-3H3,(H,27,30)(H,31,32)/t15-,16+,17-,18-,19?,20?,21+,24?,25+,26-/m1/s1",GHCZAUBVMUEKKP-NHIHLBCISA-N,C[C@H](CCC(=O)NCC(O)=O)[C@H]1CCC2C3[C@@H](O)C[C@@H]4C[C@H](O)CC[C@]4(C)C3CC[C@]12C,-5.5225
3096,B-3097,ethiozin,"InChI=1S/C9H16N4OS/c1-5-15-8-12-11-6(9(2,3)4)7(14)13(8)10/h5,10H2,1-4H3",ADZSGNDOZREKJK-UHFFFAOYSA-N,CCSC1=NN=C(C(=O)N1N)C(C)(C)C,-2.7353
3097,B-3098,triflumuron,"InChI=1S/C15H10ClF3N2O3/c16-12-4-2-1-3-11(12)13(22)21-14(23)20-9-5-7-10(8-6-9)24-15(17,18)19/h1-8H,(H2,20,21,22,23)",XAIPTRIXGHTTNT-UHFFFAOYSA-N,FC(F)(F)Oc1ccc(NC(=O)NC(=O)c2ccccc2Cl)cc1,-7.1568
3098,B-3099,"acetamide, 2-(benzoyloxy)-","InChI=1S/C9H9NO3/c10-8(11)6-13-9(12)7-4-2-1-3-5-7/h1-5H,6H2,(H2,10,11)",HBEWADIWKZVJSD-UHFFFAOYSA-N,NC(=O)COC(=O)c1ccccc1,-1.6405
3099,B-3100,"acetamide, 2-(benzoyloxy)-n-ethyl-","InChI=1S/C11H13NO3/c1-2-12-10(13)8-15-11(14)9-6-4-3-5-7-9/h3-7H,2,8H2,1H3,(H,12,13)",FPWKJKWOCSENMO-UHFFFAOYSA-N,CCNC(=O)COC(=O)c1ccccc1,-2.2373
3100,B-3101,"benzoic acid, 2-(diethylamino)-2-oxoethyl ester","InChI=1S/C13H17NO3/c1-3-14(4-2)12(15)10-17-13(16)11-8-6-5-7-9-11/h5-9H,3-4,10H2,1-2H3",MTAAHMQCSJMGHI-UHFFFAOYSA-N,CCN(CC)C(=O)COC(=O)c1ccccc1,-2.0706
3101,B-3102,"dl-alanine, n-ethyl-","InChI=1S/C5H11NO2/c1-3-6-4(2)5(7)8/h4,6H,3H2,1-2H3,(H,7,8)",DATPFTPVGIHCCM-UHFFFAOYSA-N,CCNC(C)C(O)=O,0.6522
3102,B-3103,"2,4(1h,3h)-pyrimidinedione, 5-aminodihydro-1,3-d","InChI=1S/C6H9N3O2S/c1-8-4(10)3(7)5(12)9(2)6(8)11/h3H,7H2,1-2H3",CAMGETFHWUKWEO-UHFFFAOYSA-N,CN1C(=O)C(N)C(=S)N(C)C1=O,-1.117
3103,B-3104,"2,2',3,4,4'-pentachlorobiphenyl",InChI=1S/C12H5Cl5/c13-6-1-2-7(10(15)5-6)8-3-4-9(14)12(17)11(8)16/h1-5H,LACXVZHAJMVESG-UHFFFAOYSA-N,Clc1ccc(c(Cl)c1)c2ccc(Cl)c(Cl)c2Cl,-7.62
3104,B-3105,4(1h)-pteridinethione,"InChI=1S/C6H4N4S/c11-6-4-5(9-3-10-6)8-2-1-7-4/h1-3H,(H,8,9,10,11)",GTLUQRDIJWHQGF-UHFFFAOYSA-N,S=C1N=CNc2nccnc12,-2.6471
3105,B-3106,"1,3-propanediol, 2-nitro-1-phenyl-, diacetate (e","InChI=1S/C13H15NO6/c1-9(15)19-8-12(14(17)18)13(20-10(2)16)11-6-4-3-5-7-11/h3-7,12-13H,8H2,1-2H3",AYBALPYBYZFKDS-UHFFFAOYSA-N,CC(=O)OCC(C(OC(C)=O)c1ccccc1)[N+]([O-])=O,-3.972
3106,B-3107,fenitropan,"InChI=1S/C13H15NO6/c1-9(15)19-8-12(14(17)18)13(20-10(2)16)11-6-4-3-5-7-11/h3-7,12-13H,8H2,1-2H3/t12-,13+/m1/s1",AYBALPYBYZFKDS-OLZOCXBDSA-N,CC(=O)OC[C@H]([C@@H](OC(C)=O)c1ccccc1)[N+]([O-])=O,-3.972
3107,B-3108,pencycuron,"InChI=1S/C19H21ClN2O/c20-16-12-10-15(11-13-16)14-22(18-8-4-5-9-18)19(23)21-17-6-2-1-3-7-17/h1-3,6-7,10-13,18H,4-5,8-9,14H2,(H,21,23)",OGYFATSSENRIKG-UHFFFAOYSA-N,Clc1ccc(CN(C2CCCC2)C(=O)Nc3ccccc3)cc1,-6.0399
3108,B-3109,esfenvalerate,"InChI=1S/C25H22ClNO3/c1-17(2)24(18-11-13-20(26)14-12-18)25(28)30-23(16-27)19-7-6-10-22(15-19)29-21-8-4-3-5-9-21/h3-15,17,23-24H,1-2H3/t23-,24+/m0/s1",NYPJDWWKZLNGGM-BJKOFHAPSA-N,CC(C)[C@@H](C(=O)O[C@@H](C#N)c1cccc(Oc2ccccc2)c1)c3ccc(Cl)cc3,-8.3221
3109,B-3110,penconazole,"InChI=1S/C13H15Cl2N3/c1-2-3-10(7-18-9-16-8-17-18)12-5-4-11(14)6-13(12)15/h4-6,8-10H,2-3,7H2,1H3",WKBPZYKAUNRMKP-UHFFFAOYSA-N,CCCC(Cn1cncn1)c2ccc(Cl)cc2Cl,-3.5903
3110,B-3111,flutolanil,"InChI=1S/C17H16F3NO2/c1-11(2)23-13-7-5-6-12(10-13)21-16(22)14-8-3-4-9-15(14)17(18,19)20/h3-11H,1-2H3,(H,21,22)",PTCGDEVVHUXTMP-UHFFFAOYSA-N,CC(C)Oc1cccc(NC(=O)c2ccccc2C(F)(F)F)c1,-4.6947
3111,B-3112,fenoxaprop ethyl,"InChI=1S/C18H16ClNO5/c1-3-22-17(21)11(2)23-13-5-7-14(8-6-13)24-18-20-15-9-4-12(19)10-16(15)25-18/h4-11H,3H2,1-2H3",PQKBPHSEKWERTG-UHFFFAOYSA-N,CCOC(=O)C(C)Oc1ccc(Oc2oc3cc(Cl)ccc3n2)cc1,-5.6042
3112,B-3113,"3,3',4-trichlorodiphenyl ether",InChI=1S/C12H7Cl3O/c13-8-2-1-3-9(6-8)16-10-4-5-11(14)12(15)7-10/h1-7H,BUKLLCIUMZELOH-UHFFFAOYSA-N,Clc1cccc(Oc2ccc(Cl)c(Cl)c2)c1,-5.437
3113,B-3114,tralomethrin,"InChI=1S/C22H19Br4NO3/c1-21(2)17(19(23)22(24,25)26)18(21)20(28)30-16(12-27)13-7-6-10-15(11-13)29-14-8-4-3-5-9-14/h3-11,16-19H,1-2H3/t16-,17-,18+,19?/m1/s1",YWSCPYYRJXKUDB-KAKFPZCNSA-N,CC1(C)[C@@H](C(Br)C(Br)(Br)Br)[C@H]1C(=O)O[C@H](C#N)c2cccc(Oc3ccccc3)c2,-6.9197
3114,B-3115,"pentanamide, n-(aminocarbonyl)-2-bromo-","InChI=1S/C6H11BrN2O2/c1-2-3-4(7)5(10)9-6(8)11/h4H,2-3H2,1H3,(H3,8,9,10,11)",APOQXKXBZDMITN-UHFFFAOYSA-N,CCCC(Br)C(=O)NC(N)=O,-1.4278
3115,B-3116,"4-cycloocten-1-amine, n,n-dimethyl-","InChI=1S/C10H19N/c1-11(2)10-8-6-4-3-5-7-9-10/h3-4,10H,5-9H2,1-2H3",BRRJALXGYRSYAI-UHFFFAOYSA-N,CN(C)C1CCCC=CCC1,-1.6004
3116,B-3117,methasulfocarb,"InChI=1S/C9H11NO4S2/c1-10-9(11)15-8-5-3-7(4-6-8)14-16(2,12)13/h3-6H,1-2H3,(H,10,11)",IXJOSTZEBSTPAG-UHFFFAOYSA-N,CNC(=O)Sc1ccc(O[S](C)(=O)=O)cc1,-2.7359
3117,B-3118,"cyclopentanecarbonitrile, 1-methyl-2-oxo-","InChI=1S/C7H9NO/c1-7(5-8)4-2-3-6(7)9/h2-4H2,1H3",KJRMGWZKDHKBCY-UHFFFAOYSA-N,CC1(CCCC1=O)C#N,0.9095
3118,B-3119,metazachlor,"InChI=1S/C14H16ClN3O/c1-11-5-3-6-12(2)14(11)18(13(19)9-15)10-17-8-4-7-16-17/h3-8H,9-10H2,1-2H3",STEPQTYSZVCJPV-UHFFFAOYSA-N,Cc1cccc(C)c1N(Cn2cccn2)C(=O)CCl,-2.8102
3119,B-3120,"urea, (1,1-diethylpropyl)-","InChI=1S/C8H18N2O/c1-4-8(5-2,6-3)10-7(9)11/h4-6H2,1-3H3,(H3,9,10,11)",KTVHWABXSLMMCT-UHFFFAOYSA-N,CCC(CC)(CC)NC(N)=O,-1.8191
3120,B-3121,fenpropimorph,"InChI=1S/C20H33NO/c1-15(12-21-13-16(2)22-17(3)14-21)11-18-7-9-19(10-8-18)20(4,5)6/h7-10,15-17H,11-14H2,1-6H3",RYAUSSKQMZRMAI-UHFFFAOYSA-N,CC(CN1CC(C)OC(C)C1)Cc2ccc(cc2)C(C)(C)C,-2.4821
3121,B-3122,alpha-cypermethrin,"InChI=1S/C22H19Cl2NO3/c1-22(2)17(12-19(23)24)20(22)21(26)28-18(13-25)14-7-6-10-16(11-14)27-15-8-4-3-5-9-15/h3-12,17-18,20H,1-2H3/t17-,18?,20-/m0/s1",KAATUXNTWXVJKI-DXCJPMOASA-N,CC1(C)[C@@H](C=C(Cl)Cl)[C@H]1C(=O)OC(C#N)c2cccc(Oc3ccccc3)c2,-7.6194
3122,B-3123,hydramethylnon,"InChI=1S/C25H24F6N4/c1-23(2)15-32-22(33-16-23)35-34-21(13-7-17-3-9-19(10-4-17)24(26,27)28)14-8-18-5-11-20(12-6-18)25(29,30)31/h3-14H,15-16H2,1-2H3,(H2,32,33,35)/b13-7+,14-8+",IQVNEKKDSLOHHK-FNCQTZNRSA-N,CC1(C)CNC(=NC1)N\N=C(/C=C/c2ccc(cc2)C(F)(F)F)\C=C\c3ccc(cc3)C(F)(F)F,-7.916
3123,B-3124,"dibenzofuran, 1,2,3,4,6,7,8-heptachloro-",InChI=1S/C12HCl7O/c13-3-1-2-4-6(15)7(16)8(17)10(19)12(4)20-11(2)9(18)5(3)14/h1H,WDMKCPIVJOGHBF-UHFFFAOYSA-N,Clc1cc2c(oc3c(Cl)c(Cl)c(Cl)c(Cl)c23)c(Cl)c1Cl,-11.4817
3124,B-3125,fenpropimorph,"InChI=1S/C20H33NO/c1-15(12-21-13-16(2)22-17(3)14-21)11-18-7-9-19(10-8-18)20(4,5)6/h7-10,15-17H,11-14H2,1-6H3/t15?,16-,17+",RYAUSSKQMZRMAI-ALOPSCKCSA-N,CC(CN1C[C@H](C)O[C@H](C)C1)Cc2ccc(cc2)C(C)(C)C,-4.8487
3125,B-3126,"dibenzofuran, 2,3,7,8-tetrabromo-",InChI=1S/C12H4Br4O/c13-7-1-5-6-2-8(14)10(16)4-12(6)17-11(5)3-9(7)15/h1-4H,HCSRVQXNLHZQNM-UHFFFAOYSA-N,Brc1cc2oc3cc(Br)c(Br)cc3c2cc1Br,-6.8395
3126,B-3127,prochloraz,"InChI=1S/C15H16Cl3N3O2/c1-2-4-20(15(22)21-5-3-19-10-21)6-7-23-14-12(17)8-11(16)9-13(14)18/h3,5,8-10H,2,4,6-7H2,1H3",TVLSRXXIMLFWEO-UHFFFAOYSA-N,CCCN(CCOc1c(Cl)cc(Cl)cc1Cl)C(=O)n2ccnc2,-4.0445
3127,B-3128,"glycine, n-(aminocarbonyl)-n-nitroso-, ethyl est","InChI=1S/C5H9N3O4/c1-2-12-4(9)3-8(7-11)5(6)10/h2-3H2,1H3,(H2,6,10)",RFAPTJJTVLWLJY-UHFFFAOYSA-N,CCOC(=O)CN(N=O)C(N)=O,0.7566
3128,B-3129,"2,2',4,5,5'-pentabromobiphenyl",InChI=1S/C12H5Br5/c13-6-1-2-9(14)7(3-6)8-4-11(16)12(17)5-10(8)15/h1-5H,OELBLPCWLAWABI-UHFFFAOYSA-N,Brc1ccc(Br)c(c1)c2cc(Br)c(Br)cc2Br,-9.7256
3129,B-3130,"1-hexen-3-ol, (.+-.)-","InChI=1S/C6H12O/c1-3-5-6(7)4-2/h4,6-7H,2-3,5H2,1H3",BVOSSZSHBZQJOI-UHFFFAOYSA-N,CCCC(O)C=C,-0.5993
3130,B-3131,"1,7-naphthyridin-8(7h)-one","InChI=1S/C8H6N2O/c11-8-7-6(3-5-10-8)2-1-4-9-7/h1-5H,(H,10,11)",VTUQISVBYRDYAW-UHFFFAOYSA-N,O=C1NC=Cc2cccnc12,-1.1428
3131,B-3132,azafenidin,"InChI=1S/C15H13Cl2N3O2/c1-2-7-22-13-9-12(10(16)8-11(13)17)20-15(21)19-6-4-3-5-14(19)18-20/h1,8-9H,3-7H2",XOEMATDHVZOBSG-UHFFFAOYSA-N,Clc1cc(Cl)c(cc1OCC#C)N2N=C3CCCCN3C2=O,-4.3251
3132,B-3133,cyhalothrin,"InChI=1S/C23H19ClF3NO3/c1-22(2)17(12-19(24)23(25,26)27)20(22)21(29)31-18(13-28)14-7-6-10-16(11-14)30-15-8-4-3-5-9-15/h3-12,17-18,20H,1-2H3/b19-12-",ZXQYGBMAQZUVMI-UNOMPAQXSA-N,CC1(C)C(\C=C(/Cl)C(F)(F)F)C1C(=O)OC(C#N)c2cccc(Oc3ccccc3)c2,-7.9541
3133,B-3134,azo dye ra,"InChI=1S/C20H18N6O4S/c1-14(27)30-12-11-25(10-2-9-21)16-5-3-15(4-6-16)23-24-20-22-18-8-7-17(26(28)29)13-19(18)31-20/h3-8,13H,2,10-12H2,1H3",ZNUBBVSUTSNSIM-UHFFFAOYSA-N,CC(=O)OCCN(CCC#N)c1ccc(cc1)N=Nc2sc3cc(ccc3n2)[N+]([O-])=O,-5.8031
3134,B-3135,forchlorfenuron,"InChI=1S/C12H10ClN3O/c13-11-8-10(6-7-14-11)16-12(17)15-9-4-2-1-3-5-9/h1-8H,(H2,14,15,16,17)",GPXLRLUVLMHHIK-UHFFFAOYSA-N,Clc1cc(NC(=O)Nc2ccccc2)ccn1,-3.8028
3135,B-3136,"2,2',4,6'-tetrachlorobiphenyl",InChI=1S/C12H6Cl4/c13-7-4-5-8(11(16)6-7)12-9(14)2-1-3-10(12)15/h1-6H,WVHNUGRFECMVLQ-UHFFFAOYSA-N,Clc1ccc(c(Cl)c1)c2c(Cl)cccc2Cl,-6.65
3136,B-3137,"2,2',3,4',6-pentachlorobiphenyl",InChI=1S/C12H5Cl5/c13-6-1-2-7(10(16)5-6)11-8(14)3-4-9(15)12(11)17/h1-5H,CXKIGWXPPVZSQK-UHFFFAOYSA-N,Clc1ccc(c(Cl)c1)c2c(Cl)ccc(Cl)c2Cl,-7.1694
3137,B-3138,"1,1'-biphenyl, 2,2',3,4',5-pentachloro-",InChI=1S/C12H5Cl5/c13-6-1-2-8(10(15)4-6)9-3-7(14)5-11(16)12(9)17/h1-5H,SUOAMBOBSWRMNQ-UHFFFAOYSA-N,Clc1ccc(c(Cl)c1)c2cc(Cl)cc(Cl)c2Cl,-7.82
3138,B-3139,"1,1'-biphenyl, 2,3,3',5',6-pentachloro-",InChI=1S/C12H5Cl5/c13-7-3-6(4-8(14)5-7)11-9(15)1-2-10(16)12(11)17/h1-5H,YDGFMDPEJCJZEV-UHFFFAOYSA-N,Clc1cc(Cl)cc(c1)c2c(Cl)ccc(Cl)c2Cl,-7.95
3139,B-3140,"1,1'-biphenyl, 2,3,4',5,6-pentachloro-",InChI=1S/C12H5Cl5/c13-7-3-1-6(2-4-7)10-11(16)8(14)5-9(15)12(10)17/h1-5H,ZDDZPDTVCZLFFC-UHFFFAOYSA-N,Clc1ccc(cc1)c2c(Cl)c(Cl)cc(Cl)c2Cl,-7.88
3140,B-3141,"2,3',4,5,5'-pentachlorobiphenyl",InChI=1S/C12H5Cl5/c13-7-1-6(2-8(14)3-7)9-4-11(16)12(17)5-10(9)15/h1-5H,ZLGYJAIAVPVCNF-UHFFFAOYSA-N,Clc1cc(Cl)cc(c1)c2cc(Cl)c(Cl)cc2Cl,-7.47
3141,B-3142,"1,1'-biphenyl, 2,2',3,4,5',6-hexachloro-",InChI=1S/C12H4Cl6/c13-5-1-2-7(14)6(3-5)10-8(15)4-9(16)11(17)12(10)18/h1-4H,CXXRQFOKRZJAJA-UHFFFAOYSA-N,Clc1ccc(Cl)c(c1)c2c(Cl)cc(Cl)c(Cl)c2Cl,-8.01
3142,B-3143,"2,2',3,4,5,6'-hexachlorobiphenyl",InChI=1S/C12H4Cl6/c13-6-2-1-3-7(14)9(6)5-4-8(15)11(17)12(18)10(5)16/h1-4H,UQPQKLGBEKEZBV-UHFFFAOYSA-N,Clc1cc(c(Cl)c(Cl)c1Cl)c2c(Cl)cccc2Cl,-8.13
3143,B-3144,"2,2',3,3',4,5,5',6-octachlorobiphenyl",InChI=1S/C12H2Cl8/c13-3-1-4(7(15)5(14)2-3)6-8(16)10(18)12(20)11(19)9(6)17/h1-2H,PJHBSPRZHUOIAS-UHFFFAOYSA-N,Clc1cc(Cl)c(Cl)c(c1)c2c(Cl)c(Cl)c(Cl)c(Cl)c2Cl,-9.42
3144,B-3145,proglinazine ethyl,"InChI=1S/C10H16ClN5O2/c1-4-18-7(17)5-12-9-14-8(11)15-10(16-9)13-6(2)3/h6H,4-5H2,1-3H3,(H2,12,13,14,15,16)",QQADVTSTCZBBOE-UHFFFAOYSA-N,CCOC(=O)CNc1nc(Cl)nc(NC(C)C)n1,-2.5622
3145,B-3146,"guanidine, n,n'-bis(4-methoxyphenyl)-","InChI=1S/C15H17N3O2/c1-19-13-7-3-11(4-8-13)17-15(16)18-12-5-9-14(20-2)10-6-12/h3-10H,1-2H3,(H3,16,17,18)",BIJOTHRFGRTFPM-UHFFFAOYSA-N,COc1ccc(NC(=N)Nc2ccc(OC)cc2)cc1,-2.7345
3146,B-3147,cyfluthrin,"InChI=1S/C22H18Cl2FNO3/c1-22(2)15(11-19(23)24)20(22)21(27)29-18(12-26)13-8-9-16(25)17(10-13)28-14-6-4-3-5-7-14/h3-11,15,18,20H,1-2H3",QQODLKZGRKWIFG-UHFFFAOYSA-N,CC1(C)C(C=C(Cl)Cl)C1C(=O)OC(C#N)c2ccc(F)c(Oc3ccccc3)c2,-8.1607
3147,B-3148,benfuresate,"InChI=1S/C12H16O4S/c1-4-17(13,14)16-9-5-6-11-10(7-9)12(2,3)8-15-11/h5-7H,4,8H2,1-3H3",QGQSRQPXXMTJCM-UHFFFAOYSA-N,CC[S](=O)(=O)Oc1ccc2OCC(C)(C)c2c1,-2.9921
3148,B-3149,"acetamide, n-acetyl-2-(benzoyloxy)-","InChI=1S/C11H11NO4/c1-8(13)12-10(14)7-16-11(15)9-5-3-2-4-6-9/h2-6H,7H2,1H3,(H,12,13,14)",NZDAAPUTURAWII-UHFFFAOYSA-N,CC(=O)NC(=O)COC(=O)c1ccccc1,-2.4003
3149,B-3150,triflumizole,"InChI=1S/C15H15ClF3N3O/c1-2-7-23-9-14(22-6-5-20-10-22)21-13-4-3-11(16)8-12(13)15(17,18)19/h3-6,8,10H,2,7,9H2,1H3",HSMVPDGQOIQYSR-UHFFFAOYSA-N,CCCOCC(=Nc1ccc(Cl)cc1C(F)(F)F)n2ccnc2,-1.4419
3150,B-3151,"2,2',4-trichlorodiphenyl ether",InChI=1S/C12H7Cl3O/c13-8-5-6-12(10(15)7-8)16-11-4-2-1-3-9(11)14/h1-7H,YXMNUPKWUMIZAV-UHFFFAOYSA-N,Clc1ccc(Oc2ccccc2Cl)c(Cl)c1,-4.9499
3151,B-3152,buprofezin,"InChI=1S/C16H23N3OS/c1-12(2)19-14(17-16(3,4)5)21-11-18(15(19)20)13-9-7-6-8-10-13/h6-10,12H,11H2,1-5H3",PRLVTUNWOQKEAI-UHFFFAOYSA-N,CC(C)N1C(=O)N(CSC1=NC(C)(C)C)c2ccccc2,-5.5307
3152,B-3153,fluroxypyr,"InChI=1S/C7H5Cl2FN2O3/c8-3-5(11)4(9)7(12-6(3)10)15-1-2(13)14/h1H2,(H2,11,12)(H,13,14)",MEFQWPUMEMWTJP-UHFFFAOYSA-N,Nc1c(Cl)c(F)nc(OCC(O)=O)c1Cl,-3.4475
3153,B-3154,fluvalinate,"InChI=1S/C26H22ClF3N2O3/c1-16(2)24(32-22-12-11-18(14-21(22)27)26(28,29)30)25(33)35-23(15-31)17-7-6-10-20(13-17)34-19-8-4-3-5-9-19/h3-14,16,23-24,32H,1-2H3",INISTDXBRIBGOC-UHFFFAOYSA-N,CC(C)C(Nc1ccc(cc1Cl)C(F)(F)F)C(=O)OC(C#N)c2cccc(Oc3ccccc3)c2,-8.0025
3154,B-3155,"ethanol, 2-bromo-2,2-dichloro-","InChI=1S/C2H3BrCl2O/c3-2(4,5)1-6/h6H,1H2",YZTOJSCFQRPGLD-UHFFFAOYSA-N,OCC(Cl)(Cl)Br,-0.4424
3155,B-3156,cyprofuram,"InChI=1S/C14H14ClNO3/c15-10-2-1-3-11(8-10)16(13(17)9-4-5-9)12-6-7-19-14(12)18/h1-3,8-9,12H,4-7H2",KRZUZYJEQBXUIN-UHFFFAOYSA-N,Clc1cccc(c1)N(C2CCOC2=O)C(=O)C3CC3,-2.6878
3156,B-3157,"2,2,4-pentanetricarboxylic acid","InChI=1S/C8H12O6/c1-4(5(9)10)3-8(2,6(11)12)7(13)14/h4H,3H2,1-2H3,(H,9,10)(H,11,12)(H,13,14)",GKJYHTGGXDEYSU-UHFFFAOYSA-N,CC(CC(C)(C(O)=O)C(O)=O)C(O)=O,-0.1086
3157,B-3158,"2-furancarboxylic acid, 3,4-dichloro-","InChI=1S/C5H2Cl2O3/c6-2-1-10-4(3(2)7)5(8)9/h1H,(H,8,9)",UIBLWJMAOKDSRF-UHFFFAOYSA-N,OC(=O)c1occ(Cl)c1Cl,-1.8263
3158,B-3159,"1,1'-biphenyl, 2,3,3',4',5,5',6-heptachloro-",InChI=1S/C12H3Cl7/c13-5-1-4(2-6(14)3-5)7-8(15)10(17)12(19)11(18)9(7)16/h1-3H,ZUTDUGMNROUBOX-UHFFFAOYSA-N,Clc1cc(Cl)cc(c1)c2c(Cl)c(Cl)c(Cl)c(Cl)c2Cl,-9.1
3159,B-3160,haloxyfop-methyl,"InChI=1S/C16H13ClF3NO4/c1-9(15(22)23-2)24-11-3-5-12(6-4-11)25-14-13(17)7-10(8-21-14)16(18,19)20/h3-9H,1-2H3",MFSWTRQUCLNFOM-UHFFFAOYSA-N,COC(=O)C(C)Oc1ccc(Oc2ncc(cc2Cl)C(F)(F)F)cc1,-4.6064
3160,B-3161,fluazifop - butyl,"InChI=1S/C19H20F3NO4/c1-3-4-11-25-18(24)13(2)26-15-6-8-16(9-7-15)27-17-10-5-14(12-23-17)19(20,21)22/h5-10,12-13H,3-4,11H2,1-2H3",VAIZTNZGPYBOGF-UHFFFAOYSA-N,CCCCOC(=O)C(C)Oc1ccc(Oc2ccc(cn2)C(F)(F)F)cc1,-5.5836
3161,B-3162,"benzoic acid, 2-[4,5-dihydro-4-methyl-4-(1-methy","InChI=1S/C16H20N2O3/c1-9(2)16(4)15(20)17-13(18-16)12-8-10(3)6-7-11(12)14(19)21-5/h6-9H,1-5H3,(H,17,18,20)",FFCCBBNQPIMUJI-UHFFFAOYSA-N,COC(=O)c1ccc(C)cc1C2=NC(C)(C(C)C)C(=O)N2,-2.53
3162,B-3163,"benzoic acid, 2-[4,5-dihydro-4-methyl-4-(1-methy","InChI=1S/C16H20N2O3/c1-9(2)16(4)15(20)17-13(18-16)11-7-6-10(3)8-12(11)14(19)21-5/h6-9H,1-5H3,(H,17,18,20)",TYIHVCIQMMTVHE-UHFFFAOYSA-N,COC(=O)c1cc(C)ccc1C2=NC(C)(C(C)C)C(=O)N2,-2.3262
3163,B-3164,flucythrinate,"InChI=1S/C26H23F2NO4/c1-17(2)24(18-11-13-21(14-12-18)32-26(27)28)25(30)33-23(16-29)19-7-6-10-22(15-19)31-20-8-4-3-5-9-20/h3-15,17,23-24,26H,1-2H3",GBIHOLCMZGAKNG-UHFFFAOYSA-N,CC(C)C(C(=O)OC(C#N)c1cccc(Oc2ccccc2)c1)c3ccc(OC(F)F)cc3,-6.8765
3164,B-3165,"3-pyridinecarboxylic acid, octyl ester","InChI=1S/C14H21NO2/c1-2-3-4-5-6-7-11-17-14(16)13-9-8-10-15-12-13/h8-10,12H,2-7,11H2,1H3",TYBQVEHLLOHMLT-UHFFFAOYSA-N,CCCCCCCCOC(=O)c1cccnc1,-3.0929
3165,B-3166,"1,1'-biphenyl, 2,2',3,6-tetrachloro-",InChI=1S/C12H6Cl4/c13-8-4-2-1-3-7(8)11-9(14)5-6-10(15)12(11)16/h1-6H,VHGHHZZTMJLTJX-UHFFFAOYSA-N,Clc1ccc(Cl)c(c1Cl)c2ccccc2Cl,-6.3001
3166,B-3167,"1,1'-biphenyl, 2,2',3,5-tetrachloro-",InChI=1S/C12H6Cl4/c13-7-4-5-10(14)9(6-7)8-2-1-3-11(15)12(8)16/h1-6H,ALDJIKXAHSDLLB-UHFFFAOYSA-N,Clc1ccc(Cl)c(c1)c2cccc(Cl)c2Cl,-6.2301
3167,B-3168,"2,2'4,5-tetrachlorobiphenyl",InChI=1S/C12H6Cl4/c13-9-4-2-1-3-7(9)8-5-11(15)12(16)6-10(8)14/h1-6H,XBTHILIDLBPRPM-UHFFFAOYSA-N,Clc1ccccc1c2cc(Cl)c(Cl)cc2Cl,-7.2505
3168,B-3169,"2,3',4',5-tetrachlorobiphenyl",InChI=1S/C12H6Cl4/c13-9-4-2-1-3-8(9)7-5-10(14)12(16)11(15)6-7/h1-6H,QILUYCYPNYWMIL-UHFFFAOYSA-N,Clc1ccccc1c2cc(Cl)c(Cl)c(Cl)c2,-6.9069
3169,B-3170,"2',3,4,5,5'-pentachlorobiphenyl",InChI=1S/C12H5Cl5/c13-7-1-2-9(14)8(5-7)6-3-10(15)12(17)11(16)4-6/h1-5H,PIVBPZFQXKMHBD-UHFFFAOYSA-N,Clc1ccc(Cl)c(c1)c2cc(Cl)c(Cl)c(Cl)c2,-7.3149
3170,B-3171,novantrone,"InChI=1S/C22H28N4O6.2ClH/c27-11-9-23-5-7-25-13-1-2-14(26-8-6-24-10-12-28)18-17(13)21(31)19-15(29)3-4-16(30)20(19)22(18)32;;/h1-4,23-30H,5-12H2;2*1H",ZAHQPTJLOCWVPG-UHFFFAOYSA-N,[H+].[H+].[Cl-].[Cl-].OCCNCCNc1ccc(NCCNCCO)c2C(=O)c3c(O)ccc(O)c3C(=O)c12,-1.8388
3171,B-3172,"dl-alanine, n-[(ethylthio)thioxomethyl]-","InChI=1S/C6H11NO2S2/c1-3-11-6(10)7-4(2)5(8)9/h4H,3H2,1-2H3,(H,7,10)(H,8,9)",WCIZDTOYENGUEG-UHFFFAOYSA-N,CCSC(=S)NC(C)C(O)=O,-1.2343
3172,B-3173,"1,3,2-oxazaphosphepin-2(3h)-amine, n,n-bis(2-chl","InChI=1S/C8H17Cl2N2O2P/c9-3-6-12(7-4-10)15(13)11-5-1-2-8-14-15/h1-8H2,(H,11,13)",VTLAANPLIFGAFQ-UHFFFAOYSA-N,ClCCN(CCCl)[P]1(=O)NCCCCO1,-0.9624
3173,B-3174,"benzenesulfonamide, 4-amino-n-(5-propyl-1,3,4-th","InChI=1S/C11H14N4O2S2/c1-2-3-10-13-14-11(18-10)15-19(16,17)9-6-4-8(12)5-7-9/h4-7H,2-3,12H2,1H3,(H,14,15)",UAFUDNOKRZAGCJ-UHFFFAOYSA-N,CCCc1sc(N[S](=O)(=O)c2ccc(N)cc2)nn1,-3.3075
3174,B-3175,fenoxaprop-ethyl,"InChI=1S/C18H16ClNO5/c1-3-22-17(21)11(2)23-13-5-7-14(8-6-13)24-18-20-15-9-4-12(19)10-16(15)25-18/h4-11H,3H2,1-2H3/t11-/m1/s1",PQKBPHSEKWERTG-LLVKDONJSA-N,CCOC(=O)[C@@H](C)Oc1ccc(Oc2oc3cc(Cl)ccc3n2)cc1,-5.6042
3175,B-3176,pyrazoxyfen,"InChI=1S/C20H16Cl2N2O3/c1-12-18(19(26)15-9-8-14(21)10-16(15)22)20(24(2)23-12)27-11-17(25)13-6-4-3-5-7-13/h3-10H,11H2,1-2H3",FKERUJTUOYLBKB-UHFFFAOYSA-N,Cn1nc(C)c(C(=O)c2ccc(Cl)cc2Cl)c1OCC(=O)c3ccccc3,-2.6514
3176,B-3177,benalaxyl,"InChI=1S/C20H23NO3/c1-14-9-8-10-15(2)19(14)21(16(3)20(23)24-4)18(22)13-17-11-6-5-7-12-17/h5-12,16H,13H2,1-4H3",CJPQIRJHIZUAQP-UHFFFAOYSA-N,COC(=O)C(C)N(C(=O)Cc1ccccc1)c2c(C)cccc2C,-3.9442