,ID,Name,InChI,InChIKey,SMILES,Solubility
1349,B-1350,"benzoic acid, 5-formyl-2-hydroxy-","InChI=1S/C8H6O4/c9-4-5-1-2-7(10)6(3-5)8(11)12/h1-4,10H,(H,11,12)",UTCFOFWMEPQCSR-UHFFFAOYSA-N,OC(=O)c1cc(C=O)ccc1O,-2.6354
1350,B-1351,pentylmalonic acid,"InChI=1S/C8H14O4/c1-2-3-4-5-6(7(9)10)8(11)12/h6H,2-5H2,1H3,(H,9,10)(H,11,12)",LAWHHRXCBUNWFI-UHFFFAOYSA-N,CCCCCC(C(O)=O)C(O)=O,0.5921
1351,B-1352,2-methyl-3-hexanol,"InChI=1S/C7H16O/c1-4-5-7(8)6(2)3/h6-8H,4-5H2,1-3H3",RGRUUTLDBCWYBL-UHFFFAOYSA-N,CCCC(O)C(C)C,-1.3093
1352,B-1353,dl-aspartic acid,"InChI=1S/C4H7NO4/c5-2(4(8)9)1-3(6)7/h2H,1,5H2,(H,6,7)(H,8,9)",CKLJMWTZIZZHCS-UHFFFAOYSA-N,NC(CC(O)=O)C(O)=O,-1.2125
1353,B-1354,"butanedioic acid, hydroxy-, (.+-.)-","InChI=1S/C4H6O5/c5-2(4(8)9)1-3(6)7/h2,5H,1H2,(H,6,7)(H,8,9)",BJEPYKJPYRNKOW-UHFFFAOYSA-N,OC(CC(O)=O)C(O)=O,0.8726
1354,B-1355,glutamic acid (dl),"InChI=1S/C5H9NO4/c6-3(5(9)10)1-2-4(7)8/h3H,1-2,6H2,(H,7,8)(H,9,10)",WHUUTDBJXJRKMK-UHFFFAOYSA-N,NC(CCC(O)=O)C(O)=O,-0.8551
1355,B-1356,2-aminomethylfuran,"InChI=1S/C5H7NO/c6-4-5-2-1-3-7-5/h1-3H,4,6H2",DDRPCXLAQZKBJP-UHFFFAOYSA-N,NCc1occc1,1.0127
1356,B-1357,"benzenesulfonic acid, 3-(dimethylamino)-","InChI=1S/C8H11NO3S/c1-9(2)7-4-3-5-8(6-7)13(10,11)12/h3-6H,1-2H3,(H,10,11,12)",SOKSKPNEBIDBOU-UHFFFAOYSA-N,CN(C)c1cccc(c1)[S](O)(=O)=O,0.2983
1357,B-1358,"2-furancarboxylic acid, 5-chloro-","InChI=1S/C5H3ClO3/c6-4-2-1-3(9-4)5(7)8/h1-2H,(H,7,8)/p-1",NNTBDUTXMIMRKK-UHFFFAOYSA-M,[O-]C(=O)c1oc(Cl)cc1,-1.7188
1358,B-1359,helicin,"InChI=1S/C13H16O7/c14-5-7-3-1-2-4-8(7)19-13-12(18)11(17)10(16)9(6-15)20-13/h1-5,9-13,15-18H,6H2/t9-,10-,11+,12-,13-/m1/s1",BGOFCVIGEYGEOF-UJPOAAIJSA-N,OC[C@H]1O[C@@H](Oc2ccccc2C=O)[C@H](O)[C@@H](O)[C@@H]1O,-1.1985
1359,B-1360,"3,4-dimethylbenzoic acid","InChI=1S/C9H10O2/c1-6-3-4-8(9(10)11)5-7(6)2/h3-5H,1-2H3,(H,10,11)/p-1",OPVAJFQBSDUNQA-UHFFFAOYSA-M,Cc1ccc(cc1C)C([O-])=O,-3.0653
1360,B-1361,m-nitrobenzyl alcohol,"InChI=1S/C7H7NO3/c9-5-6-2-1-3-7(4-6)8(10)11/h1-4,9H,5H2",CWNPOQFCIIFQDM-UHFFFAOYSA-N,OCc1cccc(c1)[N+]([O-])=O,-2.4142
1361,B-1362,p-cyanobenzoic acid,"InChI=1S/C8H5NO2/c9-5-6-1-3-7(4-2-6)8(10)11/h1-4H,(H,10,11)",ADCUEPOHPCPMCE-UHFFFAOYSA-N,OC(=O)c1ccc(cc1)C#N,-2.0885
1362,B-1363,p-nitrobenzyl alcohol,"InChI=1S/C7H7NO3/c9-5-6-1-3-7(4-2-6)8(10)11/h1-4,9H,5H2",JKTYGPATCNUWKN-UHFFFAOYSA-N,OCc1ccc(cc1)[N+]([O-])=O,-1.8841
1363,B-1364,4-dimethylamino benzoic acid,"InChI=1S/C9H11NO2/c1-10(2)8-5-3-7(4-6-8)9(11)12/h3-6H,1-2H3,(H,11,12)",YDIYEOMDOWUDTJ-UHFFFAOYSA-N,CN(C)c1ccc(cc1)C(O)=O,-3.3979
1364,B-1365,m-hydroxybenzyl alcohol,"InChI=1S/C7H8O2/c8-5-6-2-1-3-7(9)4-6/h1-4,8-9H,5H2",OKVJCVWFVRATSG-UHFFFAOYSA-N,OCc1cccc(O)c1,-0.2678
1365,B-1366,"acetamide, 2-cyano-n-phenyl-","InChI=1S/C9H8N2O/c10-7-6-9(12)11-8-4-2-1-3-5-8/h1-5H,6H2,(H,11,12)",XCTQPMCULSZKLT-UHFFFAOYSA-N,O=C(CC#N)Nc1ccccc1,-2.7275
1366,B-1367,m-hydroxyphenylacetic acid,"InChI=1S/C8H8O3/c9-7-3-1-2-6(4-7)5-8(10)11/h1-4,9H,5H2,(H,10,11)",FVMDYYGIDFPZAX-UHFFFAOYSA-N,OC(=O)Cc1cccc(O)c1,0.8177
1367,B-1368,"1-pentanamine, n,n-dipentyl-","InChI=1S/C15H33N/c1-4-7-10-13-16(14-11-8-5-2)15-12-9-6-3/h4-15H2,1-3H3",OOHAUGDGCWURIT-UHFFFAOYSA-N,CCCCCN(CCCCC)CCCCC,-4.0326
1368,B-1369,4-methylphenylisothiocyanate,"InChI=1S/C8H7NS/c1-7-2-4-8(5-3-7)9-6-10/h2-5H,1H3",ABQKHKWXTUVKGF-UHFFFAOYSA-N,Cc1ccc(cc1)N=C=S,-4.7213
1369,B-1370,p-methylstyrene,"InChI=1S/C9H10/c1-3-9-6-4-8(2)5-7-9/h3-7H,1H2,2H3",JLBJTVDPSNHSKJ-UHFFFAOYSA-N,Cc1ccc(C=C)cc1,-3.1232
1370,B-1371,p-hydroxybenzyl alcohol,"InChI=1S/C7H8O2/c8-5-6-1-3-7(9)4-2-6/h1-4,8-9H,5H2",BVJSUAQZOZWCKN-UHFFFAOYSA-N,OCc1ccc(O)cc1,-1.2678
1371,B-1372,4-chloroanisole,"InChI=1S/C7H7ClO/c1-9-7-4-2-6(8)3-5-7/h2-5H,1H3",YRGAYAGBVIXNAQ-UHFFFAOYSA-N,COc1ccc(Cl)cc1,-2.7793
1372,B-1373,"1,4-benzenedicarboxaldehyde",InChI=1S/C8H6O2/c9-5-7-1-2-8(6-10)4-3-7/h1-6H,KUCOHFSKRZZVRO-UHFFFAOYSA-N,O=Cc1ccc(C=O)cc1,-2.8265
1373,B-1374,methylbutyrate,"InChI=1S/C5H10O2/c1-3-4-5(6)7-2/h3-4H2,1-2H3",UUIQMZJEGPQKFD-UHFFFAOYSA-N,CCCC(=O)OC,-0.8331
1374,B-1375,"1,2-propylene glycol diacetate","InChI=1S/C7H12O4/c1-5(11-7(3)9)4-10-6(2)8/h5H,4H2,1-3H3",MLHOXUWWKVQEJB-UHFFFAOYSA-N,CC(COC(C)=O)OC(C)=O,-0.2046
1375,B-1376,"decanedioic acid, bis(2-ethoxyethyl) ester","InChI=1S/C18H34O6/c1-3-21-13-15-23-17(19)11-9-7-5-6-8-10-12-18(20)24-16-14-22-4-2/h3-16H2,1-2H3",UVRXDBUBNLXONB-UHFFFAOYSA-N,CCOCCOC(=O)CCCCCCCCC(=O)OCCOCC,-3.1972
1376,B-1377,diethyl azelate,"InChI=1S/C13H24O4/c1-3-16-12(14)10-8-6-5-7-9-11-13(15)17-4-2/h3-11H2,1-2H3",CQMYCPZZIPXILQ-UHFFFAOYSA-N,CCOC(=O)CCCCCCCC(=O)OCC,-2.99
1377,B-1378,methyl valerate,"InChI=1S/C6H12O2/c1-3-4-5-6(7)8-2/h3-5H2,1-2H3",HNBDRPTVWVGKBR-UHFFFAOYSA-N,CCCCC(=O)OC,-1.3606
1378,B-1379,"1,4-diiodobenzene",InChI=1S/C6H4I2/c7-5-1-2-6(8)4-3-5/h1-4H,LFMWZTSOMGDDJU-UHFFFAOYSA-N,Ic1ccc(I)cc1,-5.3723
1379,B-1380,methyl maleate,"InChI=1S/C6H8O4/c1-9-5(7)3-4-6(8)10-2/h3-4H,1-2H3/b4-3-",LDCRTTXIJACKKU-ARJAWSKDSA-N,COC(=O)\C=C/C(=O)OC,-0.2557
1380,B-1381,3-nonanol,"InChI=1S/C9H20O/c1-3-5-6-7-8-9(10)4-2/h9-10H,3-8H2,1-2H3",GYSCXPVAKHVAAY-UHFFFAOYSA-N,CCCCCCC(O)CC,-2.6608
1381,B-1382,amyl propionate,"InChI=1S/C8H16O2/c1-3-5-6-7-10-8(9)4-2/h3-7H2,1-2H3",TWSRVQVEYJNFKQ-UHFFFAOYSA-N,CCCCCOC(=O)CC,-2.2505
1382,B-1383,"ethane, 1,2-diiodo-",InChI=1S/C2H4I2/c3-1-2-4/h1-2H2,GBBZLMLLFVFKJM-UHFFFAOYSA-N,ICCI,-3.2196
1383,B-1384,"3,3-dimethyl-1-butanol","InChI=1S/C6H14O/c1-6(2,3)4-5-7/h7H,4-5H2,1-3H3",DUXCSEISVMREAX-UHFFFAOYSA-N,CC(C)(C)CCO,-1.1308
1384,B-1385,"2,4-dimethyl-2-pentanol","InChI=1S/C7H16O/c1-6(2)5-7(3,4)8/h6,8H,5H2,1-4H3",FMLSQAUAAGVTJO-UHFFFAOYSA-N,CC(C)CC(C)(C)O,-0.9307
1385,B-1386,"urea, (1,1-dimethylpropyl)-","InChI=1S/C6H14N2O/c1-4-6(2,3)8-5(7)9/h4H2,1-3H3,(H3,7,8,9)",OVUWGANMOQIFHZ-UHFFFAOYSA-N,CCC(C)(C)NC(N)=O,-1.0142
1386,B-1387,2-methyl-2-hexanol,"InChI=1S/C7H16O/c1-4-5-6-7(2,3)8/h8H,4-6H2,1-3H3",KRIMXCDMVRMCTC-UHFFFAOYSA-N,CCCCC(C)(C)O,-1.0784
1387,B-1388,2-methyl-2-heptanol,"InChI=1S/C8H18O/c1-4-5-6-7-8(2,3)9/h9H,4-7H2,1-3H3",ACBMYYVZWKYLIP-UHFFFAOYSA-N,CCCCCC(C)(C)O,-1.7168
1388,B-1389,2-chloropentane,"InChI=1S/C5H11Cl/c1-3-4-5(2)6/h5H,3-4H2,1-2H3",NFRKUDYZEVQXTE-UHFFFAOYSA-N,CCCC(C)Cl,-2.3603
1389,B-1390,methyl isobutyl ether,"InChI=1S/C5H12O/c1-5(2)4-6-3/h5H,4H2,1-3H3",ZYVYEJXMYBUCMN-UHFFFAOYSA-N,COCC(C)C,-0.9007
1390,B-1391,methoxyacetic acid,"InChI=1S/C3H6O3/c1-6-2-3(4)5/h2H2,1H3,(H,4,5)",RMIODHQZRUFFFF-UHFFFAOYSA-N,COCC(O)=O,1.0454
1391,B-1392,2-nitroethanol,"InChI=1S/C2H5NO3/c4-2-1-3(5)6/h4H,1-2H2",KIPMDPDAFINLIV-UHFFFAOYSA-N,OCC[N+]([O-])=O,1.0406
1392,B-1393,ethyl isopropyl ether,"InChI=1S/C5H12O/c1-4-6-5(2)3/h5H,4H2,1-3H3",XSJVWZAETSBXKU-UHFFFAOYSA-N,CCOC(C)C,-0.5607
1393,B-1394,isopropyl formate,"InChI=1S/C4H8O2/c1-4(2)6-3-5/h3-4H,1-2H3",RMOUBSOVHSONPZ-UHFFFAOYSA-N,CC(C)OC=O,-0.6301
1394,B-1395,3-chloroiodobenzene,InChI=1S/C6H4ClI/c7-5-2-1-3-6(8)4-5/h1-4H,JMLWXCJXOYDXRN-UHFFFAOYSA-N,Clc1cccc(I)c1,-3.55
1395,B-1396,"1,3-diiodobenzene",InChI=1S/C6H4I2/c7-5-2-1-3-6(8)4-5/h1-4H,SFPQFQUXAJOWNF-UHFFFAOYSA-N,Ic1cccc(I)c1,-4.57
1396,B-1397,"2,4-dihydroxypyridine","InChI=1S/C5H5NO2/c7-4-1-2-6-5(8)3-4/h1-3H,(H2,6,7,8)",ZEZJPIDPVXJEME-UHFFFAOYSA-N,OC1=CC(=O)C=CN1,-1.2498
1397,B-1398,"1,3-benzenedimethanol","InChI=1S/C8H10O2/c9-5-7-2-1-3-8(4-7)6-10/h1-4,9-10H,5-6H2",YWMLORGQOFONNT-UHFFFAOYSA-N,OCc1cccc(CO)c1,-0.2328
1398,B-1399,24pyrimidinedione6methyl,"InChI=1S/C5H6N2O2/c1-3-2-4(8)7-5(9)6-3/h2H,1H3,(H2,6,7,8,9)",SHVCSCWHWMSGTE-UHFFFAOYSA-N,CC1=CC(=O)NC(=O)N1,-1.2557
1399,B-1400,4-hydroxypyridine,"InChI=1S/C5H5NO/c7-5-1-3-6-4-2-5/h1-4H,(H,6,7)",GCNTZFIIOFTKIY-UHFFFAOYSA-N,O=C1C=CNC=C1,1.0218
1400,B-1401,"2-propanol, 1,3-bis(3-methylbutoxy)-","InChI=1S/C13H28O3/c1-11(2)5-7-15-9-13(14)10-16-8-6-12(3)4/h11-14H,5-10H2,1-4H3",ARRCKRNGGJHASO-UHFFFAOYSA-N,CC(C)CCOCC(O)COCCC(C)C,-1.3662
1401,B-1402,"hexanedioic acid, monoethyl ester","InChI=1S/C8H14O4/c1-2-12-8(11)6-4-3-5-7(9)10/h2-6H2,1H3,(H,9,10)",UZNLHJCCGYKCIL-UHFFFAOYSA-N,CCOC(=O)CCCCC(O)=O,-0.3602
1402,B-1403,4-methyl-1-pentanol,"InChI=1S/C6H14O/c1-6(2)4-3-5-7/h6-7H,3-5H2,1-2H3",PCWGTDULNUVNBN-UHFFFAOYSA-N,CC(C)CCCO,-1.1286
1403,B-1404,2-pentenoic acid,"InChI=1S/C5H8O2/c1-2-3-4-5(6)7/h3-4H,2H2,1H3,(H,6,7)/b4-3-",YIYBQIKDCADOSF-ARJAWSKDSA-N,CC\C=C/C(O)=O,-0.2019
1404,B-1405,propyl isopropyl ether,"InChI=1S/C6H14O/c1-4-5-7-6(2)3/h6H,4-5H2,1-3H3",JIEJJGMNDWIGBJ-UHFFFAOYSA-N,CCCOC(C)C,-1.3373
1405,B-1406,1-propylnitrate,"InChI=1S/C3H7NO3/c1-2-3-7-4(5)6/h2-3H2,1H3",JNTOKFNBDFMTIV-UHFFFAOYSA-N,CCCO[N+]([O-])=O,-1.5044
1406,B-1407,3-bromopropanol,"InChI=1S/C3H7BrO/c4-2-1-3-5/h5H,1-3H2",RQFUZUMFPRMVDX-UHFFFAOYSA-N,OCCCBr,0.0093
1407,B-1408,cis-2-pentene,"InChI=1S/C5H10/c1-3-5-4-2/h3,5H,4H2,1-2H3/b5-3-",QMMOXUPEWRXHJS-HYXAFXHYSA-N,CC\C=C/C,-2.5384
1408,B-1409,3-chloro-1-propanol,"InChI=1S/C3H7ClO/c4-2-1-3-5/h5H,1-3H2",LAMUXTNQCICZQX-UHFFFAOYSA-N,OCCCCl,0.4223
1409,B-1410,"ethane, 1-chloro-2-methoxy-","InChI=1S/C3H7ClO/c1-5-3-2-4/h2-3H2,1H3",XTIGGAHUZJWQMD-UHFFFAOYSA-N,COCCCl,-0.0725
1410,B-1411,5-methyl-2-hexanol,"InChI=1S/C7H16O/c1-6(2)4-5-7(3)8/h6-8H,4-5H2,1-3H3",ZDVJGWXFXGJSIU-UHFFFAOYSA-N,CC(C)CCC(C)O,-1.375
1411,B-1412,"3-isopentyloxy-propane-1,2-diol","InChI=1S/C8H18O3/c1-7(2)3-4-11-6-8(10)5-9/h7-10H,3-6H2,1-2H3",AIOHBDYXYKMBIF-UHFFFAOYSA-N,CC(C)CCOCC(O)CO,-1.2101
1412,B-1413,"hexanedioic acid, dimethyl ester","InChI=1S/C8H14O4/c1-11-7(9)5-3-4-6-8(10)12-2/h3-6H2,1-2H3",UDSFAEKRVUSQDD-UHFFFAOYSA-N,COC(=O)CCCCC(=O)OC,-1.4629
1413,B-1414,methyl n-butyl ether,"InChI=1S/C5H12O/c1-3-4-5-6-2/h3-5H2,1-2H3",CXBDYQVECUFKRK-UHFFFAOYSA-N,CCCCOC,-0.9907
1414,B-1415,ethyl propyl ether,"InChI=1S/C5H12O/c1-3-5-6-4-2/h3-5H2,1-2H3",NVJUHMXYKCUMQA-UHFFFAOYSA-N,CCCOCC,-0.6806
1415,B-1416,n-amyl acetate,"InChI=1S/C7H14O2/c1-3-4-5-6-9-7(2)8/h3-6H2,1-2H3",PGMYKACGEOXYJE-UHFFFAOYSA-N,CCCCCOC(C)=O,-1.8841
1416,B-1417,"1,3-propanediol, diacetate","InChI=1S/C7H12O4/c1-6(8)10-4-3-5-11-7(2)9/h3-5H2,1-2H3",DSVGICPKBRQDDX-UHFFFAOYSA-N,CC(=O)OCCCOC(C)=O,-0.2046
1417,B-1418,1-heptyne,"InChI=1S/C7H12/c1-3-5-7-6-4-2/h1H,4-7H2,2H3",YVXHZKKCZYLQOP-UHFFFAOYSA-N,CCCCCC#C,-3.0099
1418,B-1419,cycloheptene,"InChI=1S/C7H12/c1-2-4-6-7-5-3-1/h1-2H,3-7H2",ZXIJMRYMVAMXQP-UHFFFAOYSA-N,C1CCC=CCC1,-3.1635
1419,B-1420,1-octyne,"InChI=1S/C8H14/c1-3-5-7-8-6-4-2/h1H,4-8H2,2H3",UMIPWJGWASORKV-UHFFFAOYSA-N,CCCCCCC#C,-3.662
1420,B-1421,n-tridecane,"InChI=1S/C13H28/c1-3-5-7-9-11-13-12-10-8-6-4-2/h3-13H2,1-2H3",IIYFAKIEWZDVMP-UHFFFAOYSA-N,CCCCCCCCCCCCC,-7.5936
1421,B-1422,tetradecane,"InChI=1S/C14H30/c1-3-5-7-9-11-13-14-12-10-8-6-4-2/h3-14H2,1-2H3",BGHCVCJVXZWKCC-UHFFFAOYSA-N,CCCCCCCCCCCCCC,-7.9551
1422,B-1423,n-pentadecane,"InChI=1S/C15H32/c1-3-5-7-9-11-13-15-14-12-10-8-6-4-2/h3-15H2,1-2H3",YCOZIPAWZNQLMR-UHFFFAOYSA-N,CCCCCCCCCCCCCCC,-9.4464
1423,B-1424,1-pentadecanol,"InChI=1S/C15H32O/c1-2-3-4-5-6-7-8-9-10-11-12-13-14-15-16/h16H,2-15H2,1H3",REIUXOLGHVXAEO-UHFFFAOYSA-N,CCCCCCCCCCCCCCCO,-6.3476
1424,B-1425,hexacosane,"InChI=1S/C26H54/c1-3-5-7-9-11-13-15-17-19-21-23-25-26-24-22-20-18-16-14-12-10-8-6-4-2/h3-26H2,1-2H3",HMSWAIKSFDFLKN-UHFFFAOYSA-N,CCCCCCCCCCCCCCCCCCCCCCCCCC,-8.3339
1425,B-1426,hexatriacontane,"InChI=1S/C36H74/c1-3-5-7-9-11-13-15-17-19-21-23-25-27-29-31-33-35-36-34-32-30-28-26-24-22-20-18-16-14-12-10-8-6-4-2/h3-36H2,1-2H3",YDLYQMBWCWFRAI-UHFFFAOYSA-N,CCCCCCCCCCCCCCCCCCCCCCCCCCCCCCCCCCCC,-8.4746
1426,B-1427,"1,1,1,2-tetrachloroethane","InChI=1S/C2H2Cl4/c3-1-2(4,5)6/h1H2",QVLAWKAXOMEXPM-UHFFFAOYSA-N,ClCC(Cl)(Cl)Cl,-2.1955
1427,B-1428,"2,4-imidazolidinedione, 5-ethyl-5-phenyl-","InChI=1S/C11H12N2O2/c1-2-11(8-6-4-3-5-7-8)9(14)12-10(15)13-11/h3-7H,2H2,1H3,(H2,12,13,14,15)",UDTWZFJEMMUFLC-UHFFFAOYSA-N,CCC1(NC(=O)NC1=O)c2ccccc2,-2.1702
1428,B-1429,"acetic acid, dibromo-","InChI=1S/C2H2Br2O2/c3-1(4)2(5)6/h1H,(H,5,6)",SIEILFNCEFEENQ-UHFFFAOYSA-N,OC(=O)C(Br)Br,0.9861
1429,B-1430,sulfasomizole,"InChI=1S/C10H11N3O2S2/c1-7-6-10(16-12-7)13-17(14,15)9-4-2-8(11)3-5-9/h2-6,13H,11H2,1H3",JVYKJZPZFIUYAB-UHFFFAOYSA-N,Cc1cc(N[S](=O)(=O)c2ccc(N)cc2)sn1,-1.0762
1430,B-1431,isoserine,"InChI=1S/C3H7NO3/c4-1-2(5)3(6)7/h2,5H,1,4H2,(H,6,7)",BMYNFMYTOJXKLE-UHFFFAOYSA-N,NCC(O)C(O)=O,-0.8369
1431,B-1432,tetramethylurea,InChI=1S/C5H12N2O/c1-6(2)5(8)7(3)4/h1-4H3,AVQQQNCBBIEMEU-UHFFFAOYSA-N,CN(C)C(=O)N(C)C,0.9349
1432,B-1433,tetrachlorophthalic acid,"InChI=1S/C8H2Cl4O4/c9-3-1(7(13)14)2(8(15)16)4(10)6(12)5(3)11/h(H,13,14)(H,15,16)",WZHHYIOUKQNLQM-UHFFFAOYSA-N,OC(=O)c1c(Cl)c(Cl)c(Cl)c(Cl)c1C(O)=O,-1.9264
1433,B-1434,bilirubin,"InChI=1S/C33H36N4O6/c1-7-20-19(6)32(42)37-27(20)14-25-18(5)23(10-12-31(40)41)29(35-25)15-28-22(9-11-30(38)39)17(4)24(34-28)13-26-16(3)21(8-2)33(43)36-26/h7-8,13-14,34-35H,1-2,9-12,15H2,3-6H3,(H,36,43)(H,37,42)(H,38,39)(H,40,41)/b26-13-,27-14-",BPYKTIZUTYGOLE-IFADSCNNSA-N,CC1=C(C=C)/C(NC1=O)=C/c2[nH]c(Cc3[nH]c(\C=C\4NC(=O)C(=C4C)C=C)c(C)c3CCC(O)=O)c(CCC(O)=O)c2C,-4.8127
1434,B-1435,resorufin,"InChI=1S/C12H7NO3/c14-7-1-3-9-11(5-7)16-12-6-8(15)2-4-10(12)13-9/h1-6,14H",HSSLDCABUXLXKM-UHFFFAOYSA-N,Oc1ccc2N=C3C=CC(=O)C=C3Oc2c1,-1.0277
1435,B-1436,"4(1h)-pyrimidinone, 2,3-dihydro-5-methyl-2-thiox","InChI=1S/C5H6N2OS/c1-3-2-6-5(9)7-4(3)8/h2H,1H3,(H2,6,7,8,9)",ZLAQATDNGLKIEV-UHFFFAOYSA-N,CC1=CNC(=S)NC1=O,-2.4461
1436,B-1437,4-hydroxyisophthalic acid,"InChI=1S/C8H6O5/c9-6-2-1-4(7(10)11)3-5(6)8(12)13/h1-3,9H,(H,10,11)(H,12,13)",BCEQKAQCUWUNML-UHFFFAOYSA-N,OC(=O)c1ccc(O)c(c1)C(O)=O,-2.7833
1437,B-1438,"butanedioic acid, methyl-, (.+-.)-","InChI=1S/C5H8O4/c1-3(5(8)9)2-4(6)7/h3H,2H2,1H3,(H,6,7)(H,8,9)",WXUAQHNMJWJLTG-UHFFFAOYSA-N,CC(CC(O)=O)C(O)=O,0.4143
1438,B-1439,l-malic acid,"InChI=1S/C4H6O5/c5-2(4(8)9)1-3(6)7/h2,5H,1H2,(H,6,7)(H,8,9)",BJEPYKJPYRNKOW-UHFFFAOYSA-N,OC(CC(O)=O)C(O)=O,0.4331
1439,B-1440,1-cyclohexene-1-carboxylic acid,"InChI=1S/C7H10O2/c8-7(9)6-4-2-1-3-5-6/h4H,1-3,5H2,(H,8,9)",NMEZJSDUZQOPFE-UHFFFAOYSA-N,OC(=O)C1=CCCCC1,-1.2558
1440,B-1441,p-benzoquinone oxime,"InChI=1S/C6H5NO2/c8-6-3-1-5(7-9)2-4-6/h1-4,8H",JSTCPNFNKICNNO-UHFFFAOYSA-N,Oc1ccc(cc1)N=O,-1.5462
1441,B-1442,isopropyl propionate,"InChI=1S/C6H12O2/c1-4-6(7)8-5(2)3/h5H,4H2,1-3H3",IJMWOMHMDSDKGK-UHFFFAOYSA-N,CCC(=O)OC(C)C,-1.2906
1442,B-1443,4-chloroiodobenzene,InChI=1S/C6H4ClI/c7-5-1-3-6(8)4-2-5/h1-4H,GWQSENYKCGJTRI-UHFFFAOYSA-N,Clc1ccc(I)cc1,-3.54
1443,B-1444,ethyl t-butyl ether,"InChI=1S/C6H14O/c1-5-7-6(2,3)4/h5H2,1-4H3",NUMQCACRALPSHD-UHFFFAOYSA-N,CCOC(C)(C)C,-0.9302
1444,B-1445,"4h-1,3,5-dithiazine, dihydro-2,4,6-trimethyl-,","InChI=1S/C6H13NS2/c1-4-7-5(2)9-6(3)8-4/h4-7H,1-3H3",FBMVFHKKLDGLJA-UHFFFAOYSA-N,CC1NC(C)SC(C)S1,-1.3679
1445,B-1446,"1,3-diacetylurea","InChI=1S/C5H8N2O3/c1-3(8)6-5(10)7-4(2)9/h1-2H3,(H2,6,7,8,9,10)",UJQLDFMZDSDZEY-UHFFFAOYSA-N,CC(=O)NC(=O)NC(C)=O,-0.3137
1446,B-1447,tridecanoic acid,"InChI=1S/C13H26O2/c1-2-3-4-5-6-7-8-9-10-11-12-13(14)15/h2-12H2,1H3,(H,14,15)",SZHOJFHSIKHZHA-UHFFFAOYSA-N,CCCCCCCCCCCCC(O)=O,-3.8126
1447,B-1448,thiometon,"InChI=1S/C6H15O2PS3/c1-4-11-5-6-12-9(10,7-2)8-3/h4-6H2,1-3H3",OPASCBHCTNRLRM-UHFFFAOYSA-N,CCSCCS[P](=S)(OC)OC,-3.0905
1448,B-1449,fluoroacetamide,"InChI=1S/C2H4FNO/c3-1-2(4)5/h1H2,(H2,4,5)",FVTWJXMFYOXOKK-UHFFFAOYSA-N,NC(=O)CF,1.1132
1449,B-1450,glycochenodeoxycholic acid,"InChI=1S/C26H43NO5/c1-15(4-7-22(30)27-14-23(31)32)18-5-6-19-24-20(9-11-26(18,19)3)25(2)10-8-17(28)12-16(25)13-21(24)29/h15-21,24,28-29H,4-14H2,1-3H3,(H,27,30)(H,31,32)/t15-,16+,17-,18-,19+,20+,21-,24+,25+,26-/m1/s1",GHCZAUBVMUEKKP-GYPHWSFCSA-N,C[C@H](CCC(=O)NCC(O)=O)[C@H]1CC[C@H]2[C@@H]3[C@H](O)C[C@@H]4C[C@H](O)CC[C@]4(C)[C@H]3CC[C@]12C,-5.1546
1450,B-1451,acetyl benzoyl peroxide,"InChI=1S/C9H8O4/c1-7(10)12-13-9(11)8-5-3-2-4-6-8/h2-6H,1H3",PDAVOLCVHOKLEO-UHFFFAOYSA-N,CC(=O)OOC(=O)c1ccccc1,-2.4502
1451,B-1452,4-propylphenol,"InChI=1S/C9H12O/c1-2-3-8-4-6-9(10)7-5-8/h4-7,10H,2-3H2,1H3",KLSLBUSXWBJMEC-UHFFFAOYSA-N,CCCc1ccc(O)cc1,-2.0276
1452,B-1453,2-ethyl-2-hexenal,"InChI=1S/C8H14O/c1-3-5-6-8(4-2)7-9/h6-7H,3-5H2,1-2H3/b8-6+",PYLMCYQHBRSDND-SOFGYWHQSA-N,CCC\C=C(/CC)C=O,-2.3332
1453,B-1454,"1,3,5-triazin-2(1h)-one, 4,6-diamino-","InChI=1S/C3H5N5O/c4-1-6-2(5)8-3(9)7-1/h(H5,4,5,6,7,8,9)",MASBWURJQFFLOO-UHFFFAOYSA-N,NC1=NC(=O)N=C(N)N1,-3.2291
1454,B-1455,trans-2-pentene,"InChI=1S/C5H10/c1-3-5-4-2/h3,5H,4H2,1-2H3/b5-3+",QMMOXUPEWRXHJS-HWKANZROSA-N,CC\C=C\C,-2.5384
1455,B-1456,"1,3-dioxalane",InChI=1S/C3H6O2/c1-2-5-3-4-1/h1-3H2,WNXJIVFYUVYPPR-UHFFFAOYSA-N,C1COCO1,1.1303
1456,B-1457,5-aminopentanoic acid,"InChI=1S/C5H11NO2/c6-4-2-1-3-5(7)8/h1-4,6H2,(H,7,8)",JJMDCOVWQOJGCB-UHFFFAOYSA-N,NCCCCC(O)=O,0.9313
1457,B-1458,l-homoserine,"InChI=1S/C4H9NO3/c5-3(1-2-6)4(7)8/h3,6H,1-2,5H2,(H,7,8)/t3-/m0/s1",UKAUYVFTDYCKQA-VKHMYHEASA-N,N[C@@H](CCO)C(O)=O,0.924
1458,B-1459,simetone,"InChI=1S/C8H15N5O/c1-4-9-6-11-7(10-5-2)13-8(12-6)14-3/h4-5H2,1-3H3,(H2,9,10,11,12,13)",HKAMKLBXTLTVCN-UHFFFAOYSA-N,CCNc1nc(NCC)nc(OC)n1,-1.7898
1459,B-1460,hexamethylphosphoramide,"InChI=1S/C6H18N3OP/c1-7(2)11(10,8(3)4)9(5)6/h1-6H3",GNOIPBMMFNIUFM-UHFFFAOYSA-N,CN(C)[P](=O)(N(C)C)N(C)C,0.7467
1460,B-1461,"ethanesulfonothioic acid, s-ethyl ester","InChI=1S/C4H10O2S2/c1-3-7-8(5,6)4-2/h3-4H2,1-2H3",OICGFSUWXCJLCO-UHFFFAOYSA-N,CCS[S](=O)(=O)CC,-1.109
1461,B-1462,dibutyl dichloro tin,"InChI=1S/2C4H9.2ClH.Sn/c2*1-3-4-2;;;/h2*1,3-4H2,2H3;2*1H;/q;;;;+2/p-2",RJGHQTVXGKYATR-UHFFFAOYSA-L,CCCC[Sn](Cl)(Cl)CCCC,-3.5188
1462,B-1463,"ethane, 1,2-dibromo-1,2-dichloro-",InChI=1S/C2H2Br2Cl2/c3-1(5)2(4)6/h1-2H,RJMDFMUPJANPGX-UHFFFAOYSA-N,ClC(Br)C(Cl)Br,-2.5644
1463,B-1464,"acetamide, 2,2-dichloro-","InChI=1S/C2H3Cl2NO/c3-1(4)2(5)6/h1H,(H2,5,6)",WCGGWVOVFQNRRS-UHFFFAOYSA-N,NC(=O)C(Cl)Cl,-0.2558
1464,B-1465,1-nitroso-1-methylurea,"InChI=1S/C2H5N3O2/c1-5(4-7)2(3)6/h1H3,(H2,3,6)",ZRKWMRDKSOPRRS-UHFFFAOYSA-N,CN(N=O)C(N)=O,-0.8548
1465,B-1466,"d-glucose, 2-deoxy-2-[(ethoxycarbonyl)amino]-","InChI=1S/C9H17NO7/c1-2-17-9(16)10-5(3-11)7(14)8(15)6(13)4-12/h3,5-8,12-15H,2,4H2,1H3,(H,10,16)/t5-,6+,7+,8+/m0/s1",HFLAZFSCYHSMQS-LXGUWJNJSA-N,CCOC(=O)N[C@@H](C=O)[C@@H](O)[C@H](O)[C@H](O)CO,0.1139
1466,B-1467,1-buten-3-yne,"InChI=1S/C4H4/c1-3-4-2/h1,4H,2H2",WFYPICNXBKQZGB-UHFFFAOYSA-N,C=CC#C,-1.4648
1467,B-1468,4-methyl-1-pentene,"InChI=1S/C6H12/c1-4-5-6(2)3/h4,6H,1,5H2,2-3H3",WSSSPWUEQFSQQG-UHFFFAOYSA-N,CC(C)CC=C,-3.2439
1468,B-1469,"diethylene diglycol, dinitrate",InChI=1S/C4H8N2O7/c7-5(8)12-3-1-11-2-4-13-6(9)10/h1-4H2,LYAGTVMJGHTIDH-UHFFFAOYSA-N,[O-][N+](=O)OCCOCCO[N+]([O-])=O,-1.7015
1469,B-1470,dodecanedioic acid,"InChI=1S/C12H22O4/c13-11(14)9-7-5-3-1-2-4-6-8-10-12(15)16/h1-10H2,(H,13,14)(H,15,16)",TVIDDXQYHWJXFK-UHFFFAOYSA-N,OC(=O)CCCCCCCCCCC(O)=O,-3.7603
1470,B-1471,2-bromochlorobenzene,InChI=1S/C6H4BrCl/c7-5-3-1-2-4-6(5)8/h1-4H,QBELEDRHMPMKHP-UHFFFAOYSA-N,Clc1ccccc1Br,-3.63
1471,B-1472,"2(1h)-pyridinone, 1-methyl-","InChI=1S/C6H7NO/c1-7-5-3-2-4-6(7)8/h2-5H,1H3",DVVGIUUJYPYENY-UHFFFAOYSA-N,CN1C=CC=CC1=O,0.9621
1472,B-1473,"benzene, iodyl-",InChI=1S/C6H5IO2/c8-7(9)6-4-2-1-3-5-6/h1-5H,BDOLQESNFGCNSC-UHFFFAOYSA-N,O=[I](=O)c1ccccc1,-1.8416
1473,B-1474,"benzenamine, n,3-dimethyl-","InChI=1S/C8H11N/c1-7-4-3-5-8(6-7)9-2/h3-6,9H,1-2H3",FBGJJTQNZVNEQU-UHFFFAOYSA-N,CNc1cccc(C)c1,-2.05
1474,B-1475,"2,3,5-trimethylphenol","InChI=1S/C9H12O/c1-6-4-7(2)8(3)9(10)5-6/h4-5,10H,1-3H3",OGRAOKJKVGDSFR-UHFFFAOYSA-N,Cc1cc(C)c(C)c(O)c1,-2.2522
1475,B-1476,3-ethyl-5-methylphenol,"InChI=1S/C9H12O/c1-3-8-4-7(2)5-9(10)6-8/h4-6,10H,3H2,1-2H3",XTCHLXABLZQNNN-UHFFFAOYSA-N,CCc1cc(C)cc(O)c1,-1.7696
1476,B-1477,5-methyl-2-nitrophenol,"InChI=1S/C7H7NO3/c1-5-2-3-6(8(10)11)7(9)4-5/h2-4,9H,1H3",NQXUSSVLFOBRSE-UHFFFAOYSA-N,Cc1ccc(c(O)c1)[N+]([O-])=O,-2.7505
1477,B-1478,4-hydroxypteridine,"InChI=1S/C6H4N4O/c11-6-4-5(9-3-10-6)8-2-1-7-4/h1-3H,(H,8,9,10,11)",UWWUXWWWOUNMKW-UHFFFAOYSA-N,O=C1N=CNc2nccnc12,-1.4716
1478,B-1479,2-pteridinamine,"InChI=1S/C6H5N5/c7-6-10-3-4-5(11-6)9-2-1-8-4/h1-3H,(H2,7,9,10,11)",HYCZDWGCJOEHBO-UHFFFAOYSA-N,Nc1ncc2nccnc2n1,-2.2979
1479,B-1480,octachlorocyclopentene,"InChI=1S/C5Cl8/c6-1-2(7)4(10,11)5(12,13)3(1,8)9",DMZRCHJVWAKCAX-UHFFFAOYSA-N,ClC1=C(Cl)C(Cl)(Cl)C(Cl)(Cl)C1(Cl)Cl,-6.5362
1480,B-1481,1-methyl uric acid,"InChI=1S/C6H6N4O3/c1-10-4(11)2-3(9-6(10)13)8-5(12)7-2/h1H3,(H,9,13)(H2,7,8,12)",QFDRTQONISXGJA-UHFFFAOYSA-N,CN1C(=O)NC2=C(NC(=O)N2)C1=O,-1.5614