,ID,Name,InChI,InChIKey,SMILES,Solubility
3464,B-3465,"2-thiophenesulfonamide, 4-(4-methylbenzoyl)-","InChI=1S/C12H11NO3S2/c1-8-2-4-9(5-3-8)12(14)10-6-11(17-7-10)18(13,15)16/h2-7H,1H3,(H2,13,15,16)",GYTMHWVFKHLDEA-UHFFFAOYSA-N,Cc1ccc(cc1)C(=O)c2csc(c2)[S](N)(=O)=O,-4.4492
3465,B-3466,flupoxam,"InChI=1S/C19H14ClF5N4O2/c20-14-7-6-13(8-12(14)9-31-10-18(21,22)19(23,24)25)29-17(11-4-2-1-3-5-11)27-16(28-29)15(26)30/h1-8H,9-10H2,(H2,26,30)",AOQMRUTZEYVDIL-UHFFFAOYSA-N,NC(=O)c1nn(c2ccc(Cl)c(COCC(F)(F)C(F)(F)F)c2)c(n1)c3ccccc3,-5.6635
3466,B-3467,tebufenpyrad,"InChI=1S/C18H24ClN3O/c1-6-14-15(19)16(22(5)21-14)17(23)20-11-12-7-9-13(10-8-12)18(2,3)4/h7-10H,6,11H2,1-5H3,(H,20,23)",ZZYSLNWGKKDOML-UHFFFAOYSA-N,CCc1nn(C)c(C(=O)NCc2ccc(cc2)C(C)(C)C)c1Cl,-5.1086
3467,B-3468,difenoconazole,"InChI=1S/C19H17Cl2N3O3/c1-13-9-25-19(27-13,10-24-12-22-11-23-24)17-7-6-16(8-18(17)21)26-15-4-2-14(20)3-5-15/h2-8,11-13H,9-10H2,1H3",BQYJATMQXGBDHF-UHFFFAOYSA-N,CC1COC(Cn2cncn2)(O1)c3ccc(Oc4ccc(Cl)cc4)cc3Cl,-4.4327
3468,B-3469,quizalofop-p-tefuryl,"InChI=1S/C22H21ClN2O5/c1-14(22(26)28-13-18-3-2-10-27-18)29-16-5-7-17(8-6-16)30-21-12-24-20-11-15(23)4-9-19(20)25-21/h4-9,11-12,14,18H,2-3,10,13H2,1H3",BBKDWPHJZANJGB-UHFFFAOYSA-N,CC(Oc1ccc(Oc2cnc3cc(Cl)ccc3n2)cc1)C(=O)OCC4CCCO4,-5.0303
3469,B-3470,fipronil,"InChI=1S/C12H4Cl2F6N4OS/c13-5-1-4(11(15,16)17)2-6(14)8(5)24-10(22)9(7(3-21)23-24)26(25)12(18,19)20/h1-2H,22H2",ZOCSXAVNDGMNBV-UHFFFAOYSA-N,Nc1n(nc(C#N)c1[S](=O)C(F)(F)F)c2c(Cl)cc(cc2Cl)C(F)(F)F,-5.3619
3470,B-3471,azimsulfuron,"InChI=1S/C13H16N10O5S/c1-22-11(7(6-14-22)10-18-21-23(2)19-10)29(25,26)20-13(24)17-12-15-8(27-3)5-9(16-12)28-4/h5-6H,1-4H3,(H2,15,16,17,20,24)",MAHPNPYYQAIOJN-UHFFFAOYSA-N,COc1cc(OC)nc(NC(=O)N[S](=O)(=O)c2n(C)ncc2c3nnn(C)n3)n1,-2.6066
3471,B-3472,nitenpyram,"InChI=1S/C11H15ClN4O2/c1-3-15(11(13-2)8-16(17)18)7-9-4-5-10(12)14-6-9/h4-6,8,13H,3,7H2,1-2H3/b11-8+",CFRPSFYHXJZSBI-DHZHZOJOSA-N,CCN(Cc1ccc(Cl)nc1)\C(NC)=C\[N+]([O-])=O,0.4918
3472,B-3473,fenazaquin,"InChI=1S/C20H22N2O/c1-20(2,3)16-10-8-15(9-11-16)12-13-23-19-17-6-4-5-7-18(17)21-14-22-19/h4-11,14H,12-13H2,1-3H3",DMYHGDXADUDKCQ-UHFFFAOYSA-N,CC(C)(C)c1ccc(CCOc2ncnc3ccccc23)cc1,-6.1439
3473,B-3474,"3-p-anisidino-propane-1,2-diol","InChI=1S/C10H15NO3/c1-14-10-4-2-8(3-5-10)11-6-9(13)7-12/h2-5,9,11-13H,6-7H2,1H3",AZKRMADMLBGMOJ-UHFFFAOYSA-N,COc1ccc(NCC(O)CO)cc1,-0.295
3474,B-3475,cga 219417 (cyprodinil),"InChI=1S/C14H15N3/c1-10-9-13(11-7-8-11)17-14(15-10)16-12-5-3-2-4-6-12/h2-6,9,11H,7-8H2,1H3,(H,15,16,17)",HAORKNGNJCEJBX-UHFFFAOYSA-N,Cc1cc(nc(Nc2ccccc2)n1)C3CC3,-4.2388
3475,B-3476,furilazole,"InChI=1S/C11H13Cl2NO3/c1-11(2)14(10(15)9(12)13)6-8(17-11)7-4-3-5-16-7/h3-5,8-9H,6H2,1-2H3",MCNOFYBITGAAGM-UHFFFAOYSA-N,CC1(C)OC(CN1C(=O)C(Cl)Cl)c2occc2,-3.1498
3476,B-3477,Cyhalofop-butyl,"InChI=1S/C20H20FNO4/c1-3-4-11-24-20(23)14(2)25-16-6-8-17(9-7-16)26-19-10-5-15(13-22)12-18(19)21/h5-10,12,14H,3-4,11H2,1-2H3",TYIYMOAHACZAMQ-UHFFFAOYSA-N,CCCCOC(=O)C(C)Oc1ccc(Oc2ccc(cc2F)C#N)cc1,-5.707999999999999
3477,B-3478,imazosulfuron,"InChI=1S/C14H13ClN6O5S/c1-25-9-7-10(26-2)18-13(17-9)19-14(22)20-27(23,24)12-11(15)16-8-5-3-4-6-21(8)12/h3-7H,1-2H3,(H2,17,18,19,20,22)",NAGRVUXEKKZNHT-UHFFFAOYSA-N,COc1cc(OC)nc(NC(=O)N[S](=O)(=O)c2n3ccccc3nc2Cl)n1,-4.7886
3478,B-3479,"l-asparagine, n2-(chloroacetyl)-","InChI=1S/C6H9ClN2O4/c7-2-5(11)9-3(6(12)13)1-4(8)10/h3H,1-2H2,(H2,8,10)(H,9,11)(H,12,13)/t3-/m0/s1",MTOREWCHUWIPOO-VKHMYHEASA-N,NC(=O)C[C@H](NC(=O)CCl)C(O)=O,-0.3193
3479,B-3480,rimsulfuron,"InChI=1S/C14H17N5O7S2/c1-4-27(21,22)9-6-5-7-15-12(9)28(23,24)19-14(20)18-13-16-10(25-2)8-11(17-13)26-3/h5-8H,4H2,1-3H3,(H2,16,17,18,19,20)",MEFOUWRMVYJCQC-UHFFFAOYSA-N,CC[S](=O)(=O)c1cccnc1[S](=O)(=O)NC(=O)Nc2nc(OC)cc(OC)n2,-4.6349
3480,B-3481,pymetrozine,"InChI=1S/C10H11N5O/c1-8-7-15(10(16)14-13-8)12-6-9-3-2-4-11-5-9/h2-6H,7H2,1H3,(H,14,16)/b12-6+",QHMTXANCGGJZRX-WUXMJOGZSA-N,CC1=NNC(=O)N(C1)\N=C\c2cccnc2,-2.8745
3481,B-3482,"hexanal, 5-hydroxy-, (r)-","InChI=1S/C6H12O2/c1-6(8)4-2-3-5-7/h5-6,8H,2-4H2,1H3/t6-/m1/s1",YRMUTQRWVGDUBW-ZCFIWIBFSA-N,C[C@@H](O)CCCC=O,-0.46299999999999997
3482,B-3483,"phthalic acid, 3,4-dimethoxy-, 2-ethyl ester","InChI=1S/C12H14O6/c1-4-18-12(15)7-5-6-8(16-2)10(17-3)9(7)11(13)14/h5-6H,4H2,1-3H3,(H,13,14)/p-1",YSSRAFLMFRNXKL-UHFFFAOYSA-M,CCOC(=O)c1ccc(OC)c(OC)c1C([O-])=O,-2.253
3483,B-3484,"quinoline, 5,7-dichloro-4-(4-fluorophenoxy)-",InChI=1S/C15H8Cl2FNO/c16-9-7-12(17)15-13(8-9)19-6-5-14(15)20-11-3-1-10(18)2-4-11/h1-8H,WRPIRSINYZBGPK-UHFFFAOYSA-N,Fc1ccc(Oc2ccnc3cc(Cl)cc(Cl)c23)cc1,-6.4243
3484,B-3485,metconazole,"InChI=1S/C17H22ClN3O/c1-16(2)8-7-14(9-13-3-5-15(18)6-4-13)17(16,22)10-21-12-19-11-20-21/h3-6,11-12,14,22H,7-10H2,1-2H3",XWPZUHJBOLQNMN-UHFFFAOYSA-N,CC1(C)CCC(Cc2ccc(Cl)cc2)C1(O)Cn3cncn3,-4.3288
3485,B-3486,ipconazole,"InChI=1S/C18H24ClN3O/c1-13(2)17-8-5-15(9-14-3-6-16(19)7-4-14)18(17,23)10-22-12-20-11-21-22/h3-4,6-7,11-13,15,17,23H,5,8-10H2,1-2H3",QTYCMDBMOLSEAM-UHFFFAOYSA-N,CC(C)C1CCC(Cc2ccc(Cl)cc2)C1(O)Cn3cncn3,-4.6828
3486,B-3487,cafenstrole,"InChI=1S/C16H22N4O3S/c1-6-19(7-2)16(21)20-10-17-15(18-20)24(22,23)14-12(4)8-11(3)9-13(14)5/h8-10H,6-7H2,1-5H3",HFEJHAAIJZXXRE-UHFFFAOYSA-N,CCN(CC)C(=O)n1cnc(n1)[S](=O)(=O)c2c(C)cc(C)cc2C,-5.1467
3487,B-3488,"2-butenamide, n-(4-hydroxyphenyl)-","InChI=1S/C10H11NO2/c1-2-3-10(13)11-8-4-6-9(12)7-5-8/h2-7,12H,1H3,(H,11,13)",DAQBOXIXALYCPJ-UHFFFAOYSA-N,CC=CC(=O)Nc1ccc(O)cc1,-2.6464
3488,B-3489,"butanamide, n-(aminocarbonyl)-2-cyano-2-ethyl-","InChI=1S/C8H13N3O2/c1-3-8(4-2,5-9)6(12)11-7(10)13/h3-4H2,1-2H3,(H3,10,11,12,13)",RMBXZSQVALTSOC-UHFFFAOYSA-N,CCC(CC)(C#N)C(=O)NC(N)=O,-1.564
3489,B-3490,ethoxysulfuron,"InChI=1S/C15H18N4O7S/c1-4-25-10-7-5-6-8-11(10)26-27(21,22)19-15(20)18-14-16-12(23-2)9-13(17-14)24-3/h5-9H,4H2,1-3H3,(H2,16,17,18,19,20)",UWVKRNOCDUPIDM-UHFFFAOYSA-N,CCOc1ccccc1O[S](=O)(=O)NC(=O)Nc2nc(OC)cc(OC)n2,-4.1853
3490,B-3491,carfentrazone-ethyl,"InChI=1S/C15H14Cl2F3N3O3/c1-3-26-13(24)10(17)4-8-5-12(11(18)6-9(8)16)23-15(25)22(14(19)20)7(2)21-23/h5-6,10,14H,3-4H2,1-2H3",MLKCGVHIFJBRCD-UHFFFAOYSA-N,CCOC(=O)C(Cl)Cc1cc(N2N=C(C)N(C(F)F)C2=O)c(F)cc1Cl,-4.2727
3491,B-3492,clofencet,"InChI=1S/C13H11ClN2O3/c1-2-10-12(13(18)19)11(17)7-15-16(10)9-5-3-8(14)4-6-9/h3-7H,2H2,1H3,(H,18,19)",PIZCXVUFSNPNON-UHFFFAOYSA-N,CCC1=C(C(O)=O)C(=O)C=NN1c2ccc(Cl)cc2,0.4
3492,B-3493,"4-Chlorophenyl-2-(1H-1,2,4-triazol-yl)cycloheptanol","InChI=1S/C15H18ClN3O/c16-13-7-5-12(6-8-13)15(20)9-3-1-2-4-14(15)19-11-17-10-18-19/h5-8,10-11,14,20H,1-4,9H2",WRGKWWRFSUGDPX-UHFFFAOYSA-N,OC1(CCCCCC1n2cncn2)c3ccc(Cl)cc3,-3.3681
3493,B-3494,pyraflufen-ethyl,"InChI=1S/C15H13Cl2F3N2O4/c1-3-24-11(23)6-25-10-4-7(9(18)5-8(10)16)13-12(17)14(22(2)21-13)26-15(19)20/h4-5,15H,3,6H2,1-2H3",APTZNLHMIGJTEW-UHFFFAOYSA-N,CCOC(=O)COc1cc(c(F)cc1Cl)c2nn(C)c(OC(F)F)c2Cl,-5.6161
3494,B-3495,thifluzamide,"InChI=1S/C13H6Br2F6N2O2S/c1-4-22-10(12(16,17)18)9(26-4)11(24)23-8-6(14)2-5(3-7(8)15)25-13(19,20)21/h2-3H,1H3,(H,23,24)",WOSNCVAPUOFXEH-UHFFFAOYSA-N,Cc1sc(C(=O)Nc2c(Br)cc(OC(F)(F)F)cc2Br)c(n1)C(F)(F)F,-5.5186
3495,B-3496,fludioxonil,"InChI=1S/C12H6F2N2O2/c13-12(14)17-10-3-1-2-8(11(10)18-12)9-6-16-5-7(9)4-15/h1-3,5-6,16H",MUJOIMFVNIBMKC-UHFFFAOYSA-N,FC1(F)Oc2cccc(c2O1)c3c[nH]cc3C#N,-5.1395
3496,B-3497,famoxadone,"InChI=1S/C22H18N2O4/c1-22(16-12-14-19(15-13-16)27-18-10-6-3-7-11-18)20(25)24(21(26)28-22)23-17-8-4-2-5-9-17/h2-15,23H,1H3",PCCSBWNGDMYFCW-UHFFFAOYSA-N,CC1(OC(=O)N(Nc2ccccc2)C1=O)c3ccc(Oc4ccccc4)cc3,-6.8573
3497,B-3498,azoxystrobin,"InChI=1S/C22H17N3O5/c1-27-13-17(22(26)28-2)16-8-4-6-10-19(16)30-21-11-20(24-14-25-21)29-18-9-5-3-7-15(18)12-23/h3-11,13-14H,1-2H3/b17-13+",WFDXOXNFNRHQEC-GHRIWEEISA-N,CO\C=C(C(=O)OC)/c1ccccc1Oc2cc(Oc3ccccc3C#N)ncn2,-4.8276
3498,B-3499,Metominostrobin,"InChI=1S/C16H16N2O3/c1-17-16(19)15(18-20-2)13-10-6-7-11-14(13)21-12-8-4-3-5-9-12/h3-11H,1-2H3,(H,17,19)/b18-15-",HIIRDDUVRXCDBN-SDXDJHTJSA-N,CNC(=O)C(=N/OC)\c1ccccc1Oc2ccccc2,-3.3466
3499,B-3500,Acibenzolar-s-methyl,"InChI=1S/C8H6N2OS2/c1-12-8(11)5-3-2-4-6-7(5)13-10-9-6/h2-4H,1H3",UELITFHSCLAHKR-UHFFFAOYSA-N,CSC(=O)c1cccc2nnsc12,-4.4363
3500,B-3501,acetamiprid,"InChI=1S/C10H11ClN4/c1-8(14-7-12)15(2)6-9-3-4-10(11)13-5-9/h3-5H,6H2,1-2H3",WCXDHFDTOYPNIE-UHFFFAOYSA-N,CN(Cc1ccc(Cl)nc1)C(C)=NC#N,-1.7244
3501,B-3502,mefenpyr-diethyl,"InChI=1S/C16H18Cl2N2O4/c1-4-23-14(21)12-9-16(3,15(22)24-5-2)20(19-12)13-7-6-10(17)8-11(13)18/h6-8H,4-5,9H2,1-3H3",OPGCOAPTHCZZIW-UHFFFAOYSA-N,CCOC(=O)C1=NN(c2ccc(Cl)cc2Cl)C(C)(C1)C(=O)OCC,-4.271
3502,B-3503,"benzenesulfonamide, 4-[(4-hydroxybutyl)thio]-","InChI=1S/C10H15NO3S2/c11-16(13,14)10-5-3-9(4-6-10)15-8-2-1-7-12/h3-6,12H,1-2,7-8H2,(H2,11,13,14)",WDXVDWRSYOFRBP-UHFFFAOYSA-N,N[S](=O)(=O)c1ccc(SCCCCO)cc1,-2.5141
3503,B-3504,"benzenesulfonamide, 4-(3-hydroxypropyl)-","InChI=1S/C9H13NO3S/c10-14(12,13)9-5-3-8(4-6-9)2-1-7-11/h3-6,11H,1-2,7H2,(H2,10,12,13)",NSNHWGDFYDLMBS-UHFFFAOYSA-N,N[S](=O)(=O)c1ccc(CCCO)cc1,-1.032
3504,B-3505,"benzenesulfonamide, 4-(4-hydroxybutyl)-","InChI=1S/C10H15NO3S/c11-15(13,14)10-6-4-9(5-7-10)3-1-2-8-12/h4-7,12H,1-3,8H2,(H2,11,13,14)",NCRQTZXHMKBWLU-UHFFFAOYSA-N,N[S](=O)(=O)c1ccc(CCCCO)cc1,-1.1931
3505,B-3506,"benzenesulfonamide, 4-(5-hydroxypentyl)-","InChI=1S/C11H17NO3S/c12-16(14,15)11-7-5-10(6-8-11)4-2-1-3-9-13/h5-8,13H,1-4,9H2,(H2,12,14,15)",KFRDUIZQGPSJJM-UHFFFAOYSA-N,N[S](=O)(=O)c1ccc(CCCCCO)cc1,-1.9712
3506,B-3507,triflusulfuron-methyl,"InChI=1S/C16H17F3N6O6S/c1-8-5-4-6-9(11(26)27)10(8)32(29,30)24-14(28)21-12-20-13(25(2)3)23-15(22-12)31-7-16(17,18)19/h4-6H,7H2,1-3H3,(H,26,27)(H2,20,21,22,23,24,28)",AKTQJCBOGPBERP-UHFFFAOYSA-N,CN(C)c1nc(NC(=O)N[S](=O)(=O)c2c(C)cccc2C(O)=O)nc(OCC(F)(F)F)n1,-5.6798
3507,B-3508,pyriminobac-methyl,"InChI=1S/C17H19N3O6/c1-10(20-25-5)11-7-6-8-12(15(11)16(21)24-4)26-17-18-13(22-2)9-14(19-17)23-3/h6-9H,1-5H3/b20-10+",USSIUIGPBLPCDF-KEBDBYFISA-N,CO\N=C(/C)c1cccc(Oc2nc(OC)cc(OC)n2)c1C(=O)OC,-3.6037
3508,B-3509,fluquinconazole,InChI=1S/C16H8Cl2FN5O/c17-9-1-4-14(12(18)5-9)24-15(25)11-6-10(19)2-3-13(11)22-16(24)23-8-20-7-21-23/h1-8H,IJJVMEJXYNJXOJ-UHFFFAOYSA-N,Fc1ccc2N=C(n3cncn3)N(C(=O)c2c1)c4ccc(Cl)cc4Cl,-5.5754
3509,B-3510,cyclosulfamuron,"InChI=1S/C17H19N5O6S/c1-27-13-9-14(28-2)19-16(18-13)20-17(24)22-29(25,26)21-12-6-4-3-5-11(12)15(23)10-7-8-10/h3-6,9-10,21H,7-8H2,1-2H3,(H2,18,19,20,22,24)",OFSLKOLYLQSJPB-UHFFFAOYSA-N,COc1cc(OC)nc(NC(=O)N[S](=O)(=O)Nc2ccccc2C(=O)C3CC3)n1,-6.3943
3510,B-3511,imidacloprid,"InChI=1S/C9H10ClN5O2/c10-8-2-1-7(5-12-8)6-14-4-3-11-9(14)13-15(16)17/h1-2,5H,3-4,6H2,(H,11,13)",YWTYJOPNNQFBPC-UHFFFAOYSA-N,[O-][N+](=O)NC1=NCCN1Cc2ccc(Cl)nc2,-2.6223
3511,B-3512,metosulam,"InChI=1S/C14H13Cl2N5O4S/c1-7-4-5-8(15)12(11(7)16)20-26(22,23)14-18-13-17-9(24-2)6-10(25-3)21(13)19-14/h4-6,20H,1-3H3",VGHPMIFEKOFHHQ-UHFFFAOYSA-N,COc1cc(OC)n2nc(nc2n1)[S](=O)(=O)Nc3c(Cl)ccc(C)c3Cl,-3.3204
3512,B-3513,isoxaflutole,"InChI=1S/C15H12F3NO4S/c1-24(21,22)12-6-9(15(16,17)18)4-5-10(12)13(20)11-7-19-23-14(11)8-2-3-8/h4-8H,2-3H2,1H3",OYIKARCXOQLFHF-UHFFFAOYSA-N,C[S](=O)(=O)c1cc(ccc1C(=O)c2cnoc2C3CC3)C(F)(F)F,-4.7631
3513,B-3514,sulfosulfuron,"InChI=1S/C16H18N6O7S2/c1-4-30(24,25)13-14(22-8-6-5-7-10(22)17-13)31(26,27)21-16(23)20-15-18-11(28-2)9-12(19-15)29-3/h5-9H,4H2,1-3H3,(H2,18,19,20,21,23)",RBSXHDIPCIWOMG-UHFFFAOYSA-N,CC[S](=O)(=O)c1nc2ccccn2c1[S](=O)(=O)NC(=O)Nc3nc(OC)cc(OC)n3,-4.4191
3514,B-3515,fluthiamide,"InChI=1S/C14H13F4N3O2S/c1-8(2)21(10-5-3-9(15)4-6-10)11(22)7-23-13-20-19-12(24-13)14(16,17)18/h3-6,8H,7H2,1-2H3",IANUJLZYFUDJIH-UHFFFAOYSA-N,CC(C)N(C(=O)COc1sc(nn1)C(F)(F)F)c2ccc(F)cc2,-3.8121
3515,B-3516,Kresoxim-methy,"InChI=1S/C18H19NO4/c1-13-8-4-7-11-16(13)23-12-14-9-5-6-10-15(14)17(19-22-3)18(20)21-2/h4-11H,12H2,1-3H3/b19-17+",ZOTBXTZVPHCKPN-HTXNQAPBSA-N,CO\N=C(C(=O)OC)/c1ccccc1COc2ccccc2C,-5.195
3516,B-3517,oxasulfuron,"InChI=1S/C17H18N4O6S/c1-10-7-11(2)19-16(18-10)20-17(23)21-28(24,25)14-6-4-3-5-13(14)15(22)27-12-8-26-9-12/h3-7,12H,8-9H2,1-2H3,(H2,18,19,20,21,23)",IOXAXYHXMLCCJJ-UHFFFAOYSA-N,Cc1cc(C)nc(NC(=O)N[S](=O)(=O)c2ccccc2C(=O)OC3COC3)n1,-3.8930000000000002
3517,B-3518,methyl (1-(4-methyl)phenylsulfonyl) cyclopropane,"InChI=1S/C12H14O4S/c1-9-3-5-10(6-4-9)17(14,15)12(7-8-12)11(13)16-2/h3-6H,7-8H2,1-2H3",GQFAQGSQOWKLHH-UHFFFAOYSA-N,COC(=O)C1(CC1)[S](=O)(=O)c2ccc(C)cc2,-2.8803
3518,B-3519,ethyl (1-(4-methyl)phenylsulfonyl) cyclopropane,"InChI=1S/C13H16O4S/c1-3-17-12(14)13(8-9-13)18(15,16)11-6-4-10(2)5-7-11/h4-7H,3,8-9H2,1-2H3",WPUICWRULLWSQY-UHFFFAOYSA-N,CCOC(=O)C1(CC1)[S](=O)(=O)c2ccc(C)cc2,-3.0104
3519,B-3520,isopropyl (1-(4-methyl)phenylsulfonyl) cycloprop,"InChI=1S/C14H18O4S/c1-10(2)18-13(15)14(8-9-14)19(16,17)12-6-4-11(3)5-7-12/h4-7,10H,8-9H2,1-3H3",RHDLXXXPRNASTE-UHFFFAOYSA-N,CC(C)OC(=O)C1(CC1)[S](=O)(=O)c2ccc(C)cc2,-3.2307
3520,B-3521,methyl (1-(4-chloro)phenylsulfonyl) cyclopropane,"InChI=1S/C11H11ClO4S/c1-16-10(13)11(6-7-11)17(14,15)9-4-2-8(12)3-5-9/h2-5H,6-7H2,1H3",MKKNYRRAGXWBDZ-UHFFFAOYSA-N,COC(=O)C1(CC1)[S](=O)(=O)c2ccc(Cl)cc2,-3.3086
3521,B-3522,isopropyl (1-(4-chloro)phenylsulfonyl) cycloprop,"InChI=1S/C13H15ClO4S/c1-9(2)18-12(15)13(7-8-13)19(16,17)11-5-3-10(14)4-6-11/h3-6,9H,7-8H2,1-2H3",SAFRSRKBLQVPQW-UHFFFAOYSA-N,CC(C)OC(=O)C1(CC1)[S](=O)(=O)c2ccc(Cl)cc2,-3.5401
3522,B-3523,tert-butyl (1-(4-chloro)phenylsulfonyl) cyclopro,"InChI=1S/C14H17ClO4S/c1-13(2,3)19-12(16)14(8-9-14)20(17,18)11-6-4-10(15)5-7-11/h4-7H,8-9H2,1-3H3",GMJAXKKUTHHHMD-UHFFFAOYSA-N,CC(C)(C)OC(=O)C1(CC1)[S](=O)(=O)c2ccc(Cl)cc2,-4.1206
3523,B-3524,methyl (1-(4-bromo)phenylsulfonyl) cyclopropane,"InChI=1S/C11H11BrO4S/c1-16-10(13)11(6-7-11)17(14,15)9-4-2-8(12)3-5-9/h2-5H,6-7H2,1H3",IPABBDLXSJIQEG-UHFFFAOYSA-N,COC(=O)C1(CC1)[S](=O)(=O)c2ccc(Br)cc2,-3.6703
3524,B-3525,methyl (1-(4-nitro)phenylsulfonyl) cyclopropane,"InChI=1S/C11H11NO6S/c1-18-10(13)11(6-7-11)19(16,17)9-4-2-8(3-5-9)12(14)15/h2-5H,6-7H2,1H3",JPEDHHGXVGENMN-UHFFFAOYSA-N,COC(=O)C1(CC1)[S](=O)(=O)c2ccc(cc2)[N+]([O-])=O,-3.3797
3525,B-3526,isopropyl (1-(4-nitro)phenylsulfonyl) cyclopropa,"InChI=1S/C13H15NO6S/c1-9(2)20-12(15)13(7-8-13)21(18,19)11-5-3-10(4-6-11)14(16)17/h3-6,9H,7-8H2,1-2H3",WUAIGAOSYROCOI-UHFFFAOYSA-N,CC(C)OC(=O)C1(CC1)[S](=O)(=O)c2ccc(cc2)[N+]([O-])=O,-4.2605
3526,B-3527,trovafloxacin,"InChI=1S/C20H15F3N4O3/c21-8-1-2-15(13(22)3-8)27-7-12(20(29)30)17(28)9-4-14(23)19(25-18(9)27)26-5-10-11(6-26)16(10)24/h1-4,7,10-11,16H,5-6,24H2,(H,29,30)/t10-,11+,16?",WVPSKSLAZQPAKQ-SOSAQKQKSA-N,NC1[C@H]2CN(C[C@@H]12)c3nc4N(C=C(C(O)=O)C(=O)c4cc3F)c5ccc(F)cc5F,-4.5296
3527,B-3528,cloransulam,"InChI=1S/C15H13ClFN5O5S/c1-3-27-15-18-10(17)7-11-19-14(20-22(11)15)28(24,25)21-12-8(13(23)26-2)5-4-6-9(12)16/h4-7,21H,3H2,1-2H3",BIKACRYIQSLICJ-UHFFFAOYSA-N,CCOc1nc(F)cc2nc(nn12)[S](=O)(=O)Nc3c(Cl)cccc3C(=O)OC,-4.4292
3528,B-3529,Bifenazate,"InChI=1S/C17H20N2O3/c1-12(2)22-17(20)19-18-15-11-14(9-10-16(15)21-3)13-7-5-4-6-8-13/h4-12,18H,1-3H3,(H,19,20)",VHLKTXFWDRXILV-UHFFFAOYSA-N,COc1ccc(cc1NNC(=O)OC(C)C)c2ccccc2,-4.9025
3529,B-3530,etoxazole,"InChI=1S/C21H23F2NO2/c1-5-25-18-11-13(21(2,3)4)9-10-14(18)17-12-26-20(24-17)19-15(22)7-6-8-16(19)23/h6-11,17H,5,12H2,1-4H3",IXSZQYVWNJNRAL-UHFFFAOYSA-N,CCOc1cc(ccc1C2COC(=N2)c3c(F)cccc3F)C(C)(C)C,-6.6782
3530,B-3531,fentrazamide,"InChI=1S/C16H20ClN5O2/c1-2-20(12-8-4-3-5-9-12)15(23)22-16(24)21(18-19-22)14-11-7-6-10-13(14)17/h6-7,10-12H,2-5,8-9H2,1H3",LLQPHQFNMLZJMP-UHFFFAOYSA-N,CCN(C1CCCCC1)C(=O)N2N=NN(C2=O)c3ccccc3Cl,-5.1821
3531,B-3532,isopropyl (1-(4-nitro)phenylsulfonyl) cyclobutan,"InChI=1S/C14H17NO6S/c1-10(2)21-13(16)14(8-3-9-14)22(19,20)12-6-4-11(5-7-12)15(17)18/h4-7,10H,3,8-9H2,1-2H3",XWDINLQQGHPOQQ-UHFFFAOYSA-N,CC(C)OC(=O)C1(CCC1)[S](=O)(=O)c2ccc(cc2)[N+]([O-])=O,-3.7599
3532,B-3533,isopropyl (1-(4-nitro)phenylsulfonyl) cyclohexan,"InChI=1S/C16H21NO6S/c1-12(2)23-15(18)16(10-4-3-5-11-16)24(21,22)14-8-6-13(7-9-14)17(19)20/h6-9,12H,3-5,10-11H2,1-2H3",DUNHJGJBRJZBJD-UHFFFAOYSA-N,CC(C)OC(=O)C1(CCCCC1)[S](=O)(=O)c2ccc(cc2)[N+]([O-])=O,-4.8796
3533,B-3534,isopropyl (1-(4-nitro)phenylsulfonyl) cyclohepta,"InChI=1S/C17H23NO6S/c1-13(2)24-16(19)17(11-5-3-4-6-12-17)25(22,23)15-9-7-14(8-10-15)18(20)21/h7-10,13H,3-6,11-12H2,1-2H3",RWOBYZRHHZGFHD-UHFFFAOYSA-N,CC(C)OC(=O)C1(CCCCCC1)[S](=O)(=O)c2ccc(cc2)[N+]([O-])=O,-5.0706
3534,B-3535,me (1-(4-bromo)phenylsulfonyl) cyclobutane carbo,"InChI=1S/C12H13BrO4S/c1-17-11(14)12(7-2-8-12)18(15,16)10-5-3-9(13)4-6-10/h3-6H,2,7-8H2,1H3",DXGXTGYXCFBYDJ-UHFFFAOYSA-N,COC(=O)C1(CCC1)[S](=O)(=O)c2ccc(Br)cc2,-3.55
3535,B-3536,me (1-(4-bromo)phenylsulfonyl) cyclopentane carb,"InChI=1S/C13H15BrO4S/c1-18-12(15)13(8-2-3-9-13)19(16,17)11-6-4-10(14)5-7-11/h4-7H,2-3,8-9H2,1H3",GTCWZRDSJBFIDT-UHFFFAOYSA-N,COC(=O)C1(CCCC1)[S](=O)(=O)c2ccc(Br)cc2,-4.0104
3536,B-3537,me (1-(4-bromo)phenylsulfonyl) cyclohexane carbo,"InChI=1S/C14H17BrO4S/c1-19-13(16)14(9-3-2-4-10-14)20(17,18)12-7-5-11(15)6-8-12/h5-8H,2-4,9-10H2,1H3",FRWFRRPXOYMNKY-UHFFFAOYSA-N,COC(=O)C1(CCCCC1)[S](=O)(=O)c2ccc(Br)cc2,-4.4786
3537,B-3538,me (1-(4-chloro)phenylsulfonyl) cyclobutane carb,"InChI=1S/C12H13ClO4S/c1-17-11(14)12(7-2-8-12)18(15,16)10-5-3-9(13)4-6-10/h3-6H,2,7-8H2,1H3",GWBJAJHNRFKJON-UHFFFAOYSA-N,COC(=O)C1(CCC1)[S](=O)(=O)c2ccc(Cl)cc2,-2.9996
3538,B-3539,isopropyl (1-(4-chloro)phenylsulfonyl) cyclopent,"InChI=1S/C15H19ClO4S/c1-11(2)20-14(17)15(9-3-4-10-15)21(18,19)13-7-5-12(16)6-8-13/h5-8,11H,3-4,9-10H2,1-2H3",AWDYZLGQTRYRJA-UHFFFAOYSA-N,CC(C)OC(=O)C1(CCCC1)[S](=O)(=O)c2ccc(Cl)cc2,-4.6498
3539,B-3540,ethyl (1-(4-methyl)phenylsulfonyl) cyclobutane c,"InChI=1S/C14H18O4S/c1-3-18-13(15)14(9-4-10-14)19(16,17)12-7-5-11(2)6-8-12/h5-8H,3-4,9-10H2,1-2H3",CTCKUDTVPBDAHJ-UHFFFAOYSA-N,CCOC(=O)C1(CCC1)[S](=O)(=O)c2ccc(C)cc2,-2.9594
3540,B-3541,methyl (1-phenylsulfonyl) cyclobutane carboxylat,"InChI=1S/C12H14O4S/c1-16-11(13)12(8-5-9-12)17(14,15)10-6-3-2-4-7-10/h2-4,6-7H,5,8-9H2,1H3",ACFDLHBDXXPXBY-UHFFFAOYSA-N,COC(=O)C1(CCC1)[S](=O)(=O)c2ccccc2,-3.0005
3541,B-3542,methyl (1-phenylsulfonyl) cyclopentane carboxyla,"InChI=1S/C13H16O4S/c1-17-12(14)13(9-5-6-10-13)18(15,16)11-7-3-2-4-8-11/h2-4,7-8H,5-6,9-10H2,1H3",AXNXBYAMXGSWLR-UHFFFAOYSA-N,COC(=O)C1(CCCC1)[S](=O)(=O)c2ccccc2,-2.5501
3542,B-3543,methyl (1-phenylsulfonyl) cyclohexane carboxylat,"InChI=1S/C14H18O4S/c1-18-13(15)14(10-6-3-7-11-14)19(16,17)12-8-4-2-5-9-12/h2,4-5,8-9H,3,6-7,10-11H2,1H3",QKXWKAIGVBVCPM-UHFFFAOYSA-N,COC(=O)C1(CCCCC1)[S](=O)(=O)c2ccccc2,-2.8498
3543,B-3544,Brofluthrinate,"InChI=1S/C26H22BrF2NO4/c1-16(2)24(17-6-10-21(11-7-17)33-26(28)29)25(31)34-23(15-30)18-4-3-5-22(14-18)32-20-12-8-19(27)9-13-20/h3-14,16,23-24,26H,1-2H3",BUHNCQOJJZAOMJ-UHFFFAOYSA-N,CC(C)C(C(=O)OC(C#N)c1cccc(Oc2ccc(Br)cc2)c1)c3ccc(OC(F)F)cc3,-8.1731
3544,B-3545,Methoxyfenozide,"InChI=1S/C22H28N2O3/c1-14-11-15(2)13-17(12-14)21(26)24(22(4,5)6)23-20(25)18-9-8-10-19(27-7)16(18)3/h8-13H,1-7H3,(H,23,25)",QCAWEPFNJXQPAN-UHFFFAOYSA-N,COc1cccc(C(=O)NN(C(=O)c2cc(C)cc(C)c2)C(C)(C)C)c1C,-5.5664
3545,B-3546,isopropazol,"InChI=1S/C15H12BrClF4N2O2/c1-6(2)25-14(24)7-4-8(10(18)5-9(7)17)12-11(16)13(15(19,20)21)23(3)22-12/h4-6H,1-3H3",FKLQIONHGSFYJY-UHFFFAOYSA-N,CC(C)OC(=O)c1cc(c(F)cc1Cl)c2nn(C)c(c2Br)C(F)(F)F,-6.9227
3546,B-3547,ethyl 2-formamido-(furan-3-yl)acrylate,"InChI=1S/C10H11NO4/c1-2-15-10(13)9(11-7-12)5-8-3-4-14-6-8/h3-7H,2H2,1H3,(H,11,12)",BXQGDXNUVKQCPP-UHFFFAOYSA-N,CCOC(=O)C(NC=O)=Cc1cocc1,-2.7477
3547,B-3548,2-methylpropane,"InChI=1S/C4H10/c1-4(2)3/h4H,1-3H3",NNPPMTNAJDCUHE-UHFFFAOYSA-N,CC(C)C,-3.0759
3548,B-3549,"2,2-dimethylbutane","InChI=1S/C6H14/c1-5-6(2,3)4/h5H2,1-4H3",HNRMPXKDFBEGFZ-UHFFFAOYSA-N,CCC(C)(C)C,-3.6706
3549,B-3550,"2,3-dimethylbutane","InChI=1S/C6H14/c1-5(2)6(3)4/h5-6H,1-4H3",ZFFMLCVRJBZUDZ-UHFFFAOYSA-N,CC(C)C(C)C,-3.5832
3550,B-3551,3-methylpentane,"InChI=1S/C6H14/c1-4-6(3)5-2/h6H,4-5H2,1-3H3",PFEOZHBOMNWTJB-UHFFFAOYSA-N,CCC(C)CC,-3.6826
3551,B-3552,methylcyclopentane,"InChI=1S/C6H12/c1-6-4-2-3-5-6/h6H,2-5H2,1H3",GDOPTJXRTPNYNR-UHFFFAOYSA-N,CC1CCCC1,-3.3019
3552,B-3553,n-butane,"InChI=1S/C4H10/c1-3-4-2/h3-4H2,1-2H3",IJDNQMDRQITEOD-UHFFFAOYSA-N,CCCC,-2.9776
3553,B-3554,n-pentane,"InChI=1S/C5H12/c1-3-5-4-2/h3-5H2,1-2H3",OFBQJSOFQDEBGM-UHFFFAOYSA-N,CCCCC,-3.2785
3554,B-3555,n-hexane,"InChI=1S/C6H14/c1-3-5-6-4-2/h3-6H2,1-2H3",VLKZOEOYAKHREP-UHFFFAOYSA-N,CCCCCC,-3.9577