,ID,Name,InChI,InChIKey,SMILES,Solubility
2474,B-2475,"2-naphthol, 3-(2-imidazolin-2-yl)-","InChI=1S/C13H12N2O/c16-12-8-10-4-2-1-3-9(10)7-11(12)13-14-5-6-15-13/h1-4,7-8,16H,5-6H2,(H,14,15)",FLXNNWWFGVHTDN-UHFFFAOYSA-N,Oc1cc2ccccc2cc1C3=NCCN3,-3.3015
2475,B-2476,"phenol, 2-iodo-4-methyl-","InChI=1S/C7H7IO/c1-5-2-3-7(9)6(8)4-5/h2-4,9H,1H3",JITSLEIKSRKKCZ-UHFFFAOYSA-N,Cc1ccc(O)c(I)c1,-2.4662
2476,B-2477,"2-propenoic acid, 3-[2-(acetyloxy)phenyl]-, (e)-","InChI=1S/C11H10O4/c1-8(12)15-10-5-3-2-4-9(10)6-7-11(13)14/h2-7H,1H3,(H,13,14)/b7-6+",UXOWQQCLBQBRMQ-VOTSOKGWSA-N,CC(=O)Oc1ccccc1\C=C\C(O)=O,-3.1559
2477,B-2478,ethylidene norbornene,"InChI=1S/C9H12/c1-2-8-5-7-3-4-9(8)6-7/h2-4,7,9H,5-6H2,1H3/b8-2+",OJOWICOBYCXEKR-KRXBUXKQSA-N,C\C=C1/CC2CC1C=C2,-4.1305
2478,B-2479,"benzoic acid, 3-chloro-4-hydroxy-, ethyl ester","InChI=1S/C9H9ClO3/c1-2-13-9(12)6-3-4-8(11)7(10)5-6/h3-5,11H,2H2,1H3",QBOWIPYEPOVPGR-UHFFFAOYSA-N,CCOC(=O)c1ccc(O)c(Cl)c1,-3.2232
2479,B-2480,"l-glutamic acid, n-l-leucyl-","InChI=1S/C11H20N2O5/c1-6(2)5-7(12)10(16)13-8(11(17)18)3-4-9(14)15/h6-8H,3-5,12H2,1-2H3,(H,13,16)(H,14,15)(H,17,18)/t7-,8-/m0/s1",NFNVDJGXRFEYTK-YUMQZZPRSA-N,CC(C)C[C@H](N)C(=O)N[C@@H](CCC(O)=O)C(O)=O,-0.8969
2480,B-2481,"butanamide, n-methyl-n-nitroso-","InChI=1S/C5H10N2O2/c1-3-4-5(8)7(2)6-9/h3-4H2,1-2H3",XPQQMTYSKBRMIY-UHFFFAOYSA-N,CCCC(=O)N(C)N=O,-1.5347
2481,B-2482,mecoprop-p,"InChI=1S/C10H11ClO3/c1-6-5-8(11)3-4-9(6)14-7(2)10(12)13/h3-5,7H,1-2H3,(H,12,13)/t7-/m1/s1",WNTGYJSOUMFZEP-SSDOTTSWSA-N,C[C@@H](Oc1ccc(Cl)cc1C)C(O)=O,-2.3972
2482,B-2483,"2-propenamide, 2-chloro-","InChI=1S/C3H4ClNO/c1-2(4)3(5)6/h1H2,(H2,5,6)",YBXYCBGDIALKAK-UHFFFAOYSA-N,NC(=O)C(Cl)=C,-0.2104
2483,B-2484,cyclopropyl vinyl ether,"InChI=1S/C5H8O/c1-2-6-5-3-4-5/h2,5H,1,3-4H2",XRCVFFQSIMHODB-UHFFFAOYSA-N,C=COC1CC1,-1.1001
2484,B-2485,"hydantoin, 5-methyl-5-(2-piperidinoethyl)-","InChI=1S/C11H19N3O2/c1-11(9(15)12-10(16)13-11)5-8-14-6-3-2-4-7-14/h2-8H2,1H3,(H2,12,13,15,16)",PXXUBGGGONGQBX-UHFFFAOYSA-N,CC1(CCN2CCCCC2)NC(=O)NC1=O,-0.8213
2485,B-2486,"à-d-glucofuranose, 1,2:5,6-bis-o-(1-methylethyli","InChI=1S/C14H22O7/c1-7(15)17-10-9(8-6-16-13(2,3)19-8)18-12-11(10)20-14(4,5)21-12/h8-12H,6H2,1-5H3/t8-,9-,10+,11-,12-/m1/s1",QZKDRLZSJSWQPS-RMPHRYRLSA-N,CC(=O)O[C@H]1[C@H](O[C@@H]2OC(C)(C)O[C@H]12)[C@H]3COC(C)(C)O3,-1.5229
2486,B-2487,"2-thiazolecarboxylic acid, hydrazide","InChI=1S/C4H5N3OS/c5-7-3(8)4-6-1-2-9-4/h1-2H,5H2,(H,7,8)",OPJYIWMGTSMLKB-UHFFFAOYSA-N,NNC(=O)c1sccn1,-0.6787
2487,B-2488,methomyl,"InChI=1S/C5H10N2O2S/c1-4(10-3)7-9-5(8)6-2/h1-3H3,(H,6,8)/b7-4+",UHXUZOCRWCRNSJ-QPJJXVBHSA-N,CNC(=O)O\N=C(/C)SC,-0.4466
2488,B-2489,"3,4,5-trichloroveratrole","InChI=1S/C8H7Cl3O2/c1-12-5-3-4(9)6(10)7(11)8(5)13-2/h3H,1-2H3",VKNITLPENCJQOP-UHFFFAOYSA-N,COc1cc(Cl)c(Cl)c(Cl)c1OC,-4.3701
2489,B-2490,4-chloroguaiacol,"InChI=1S/C7H7ClO2/c1-10-7-4-5(8)2-3-6(7)9/h2-4,9H,1H3",FVZQMMMRFNURSH-UHFFFAOYSA-N,COc1cc(Cl)ccc1O,-1.5013
2490,B-2491,"benzenesulfonamide, 4-amino-n-1,3,4-thiadiazol-2","InChI=1S/C8H8N4O2S2/c9-6-1-3-7(4-2-6)16(13,14)12-8-11-10-5-15-8/h1-5H,9H2,(H,11,12)",ATEAASNFYTUARU-UHFFFAOYSA-N,Nc1ccc(cc1)[S](=O)(=O)Nc2scnn2,-2.8684
2491,B-2492,"2-furanacetic acid, tetrahydro-2-methyl-5-oxo-,","InChI=1S/C9H14O4/c1-3-12-8(11)6-9(2)5-4-7(10)13-9/h3-6H2,1-2H3",XPHDAEADNYTVAU-UHFFFAOYSA-N,CCOC(=O)CC1(C)CCC(=O)O1,-0.7472
2492,B-2493,"succinic acid, 2-ethyl-3-phenyl-","InChI=1S/C12H14O4/c1-2-9(11(13)14)10(12(15)16)8-6-4-3-5-7-8/h3-7,9-10H,2H2,1H3,(H,13,14)(H,15,16)",AAQWYJPJRWOQEV-UHFFFAOYSA-N,CCC(C(C(O)=O)c1ccccc1)C(O)=O,-2.3256
2493,B-2494,"benzamide, 2,4-dichloro-n-hydroxy-n-phenyl-","InChI=1S/C13H9Cl2NO2/c14-9-6-7-11(12(15)8-9)13(17)16(18)10-4-2-1-3-5-10/h1-8,18H",HUOHOGDVFDYSTQ-UHFFFAOYSA-N,ON(c1ccccc1)C(=O)c2ccc(Cl)cc2Cl,-3.6723
2494,B-2495,"pteridine, 2-(methylthio)-","InChI=1S/C7H6N4S/c1-12-7-10-4-5-6(11-7)9-3-2-8-5/h2-4H,1H3",LNTLWEUAGAFRJR-UHFFFAOYSA-N,CSc1ncc2nccnc2n1,-1.7561
2495,B-2496,"barbituric acid, 5-bromo-5-isopropyl-","InChI=1S/C7H9BrN2O3/c1-3(2)7(8)4(11)9-6(13)10-5(7)12/h3H,1-2H3,(H2,9,10,11,12,13)",VDWQDWRNMYXLOV-UHFFFAOYSA-N,CC(C)C1(Br)C(=O)NC(=O)NC1=O,-2.2088
2496,B-2497,"1,4-benzenedisulfonamide","InChI=1S/C6H8N2O4S2/c7-13(9,10)5-1-2-6(4-3-5)14(8,11)12/h1-4H,(H2,7,9,10)(H2,8,11,12)",WOUBWJAJSXAOIV-UHFFFAOYSA-N,N[S](=O)(=O)c1ccc(cc1)[S](N)(=O)=O,-2.5283
2497,B-2498,"barbituric acid,5,5-dibutyl-","InChI=1S/C12H20N2O3/c1-3-5-7-12(8-6-4-2)9(15)13-11(17)14-10(12)16/h3-8H2,1-2H3,(H2,13,14,15,16,17)",KXOZJFGEGGNJDX-UHFFFAOYSA-N,CCCCC1(CCCC)C(=O)NC(=O)NC1=O,-2.8756
2498,B-2499,8-cinnolinol,"InChI=1S/C8H6N2O/c11-7-3-1-2-6-4-5-9-10-8(6)7/h1-5,11H",UCYUOFIVFHOUTP-UHFFFAOYSA-N,Oc1cccc2ccnnc12,-2.4089
2499,B-2500,"8-cinnolinol, 4-methyl-","InChI=1S/C9H8N2O/c1-6-5-10-11-9-7(6)3-2-4-8(9)12/h2-5,12H,1H3",OLTFEHQRFCVOLY-UHFFFAOYSA-N,Cc1cnnc2c(O)cccc12,-2.6783
2500,B-2501,5-quinoxalinol,"InChI=1S/C8H6N2O/c11-7-3-1-2-6-8(7)10-5-4-9-6/h1-5,11H",ZUQDDQFXSNXEOD-UHFFFAOYSA-N,Oc1cccc2nccnc12,-1.3468
2501,B-2502,"1,6-naphthyridin-8-ol","InChI=1S/C8H6N2O/c11-7-5-9-4-6-2-1-3-10-8(6)7/h1-5,11H",WHFQWQIDXMOZBD-UHFFFAOYSA-N,Oc1cncc2cccnc12,-1.6576
2502,B-2503,"glycine, n-[n-(n-carbamoylglycyl)glycyl]-","InChI=1S/C7H12N4O5/c8-7(16)11-2-5(13)9-1-4(12)10-3-6(14)15/h1-3H2,(H,9,13)(H,10,12)(H,14,15)(H3,8,11,16)",GKOORVATHBVNBA-UHFFFAOYSA-N,NC(=O)NCC(=O)NCC(=O)NCC(O)=O,-1.3505
2503,B-2504,"butanoic acid, 2-(ethylamino)-","InChI=1S/C6H13NO2/c1-3-5(6(8)9)7-4-2/h5,7H,3-4H2,1-2H3,(H,8,9)",PRXQQZUWYABUCX-UHFFFAOYSA-N,CCNC(CC)C(O)=O,-0.4189
2504,B-2505,"benzeneacetic acid, .alpha.-hydroxy-, (s)-","InChI=1S/C8H8O3/c9-7(8(10)11)6-4-2-1-3-5-6/h1-5,7,9H,(H,10,11)/t7-/m0/s1",IWYDHOAUDWTVEP-ZETCQYMHSA-N,O[C@H](C(O)=O)c1ccccc1,0.1592
2505,B-2506,"glycine, n-[n-(aminocarbonyl)glycyl]-","InChI=1S/C5H9N3O4/c6-5(12)8-1-3(9)7-2-4(10)11/h1-2H2,(H,7,9)(H,10,11)(H3,6,8,12)",BMRYPQYWSJESHA-UHFFFAOYSA-N,NC(=O)NCC(=O)NCC(O)=O,-0.8996
2506,B-2507,isopropyl t-butyl ether,"InChI=1S/C7H16O/c1-6(2)8-7(3,4)5/h6H,1-5H3",HNFSPSWQNZVCTB-UHFFFAOYSA-N,CC(C)OC(C)(C)C,-2.3662
2507,B-2508,"3,5-dinitro-l-tyrosine","InChI=1S/C9H9N3O7/c10-5(9(14)15)1-4-2-6(11(16)17)8(13)7(3-4)12(18)19/h2-3,5,13H,1,10H2,(H,14,15)/t5-/m0/s1",SAZOSDSFLRXREA-YFKPBYRVSA-N,N[C@@H](Cc1cc(c(O)c(c1)[N+]([O-])=O)[N+]([O-])=O)C(O)=O,-1.5125
2508,B-2509,"acetone, 4-(p-nitrophenyl)semicarbazone","InChI=1S/C10H12N4O3/c1-7(2)12-13-10(15)11-8-3-5-9(6-4-8)14(16)17/h3-6H,1-2H3,(H2,11,13,15)",XBOWKFFJMDFKOW-UHFFFAOYSA-N,CC(C)=NNC(=O)Nc1ccc(cc1)[N+]([O-])=O,-3.5952
2509,B-2510,"1,3,5-benzenetricarboxylic acid, 2-methoxy-","InChI=1S/C10H8O7/c1-17-7-5(9(13)14)2-4(8(11)12)3-6(7)10(15)16/h2-3H,1H3,(H,11,12)(H,13,14)(H,15,16)",VPHWGVPHJXKPOK-UHFFFAOYSA-N,COc1c(cc(cc1C(O)=O)C(O)=O)C(O)=O,-1.5354
2510,B-2511,"1(3h)-isobenzofuranone, 3-ethyl-","InChI=1S/C10H10O2/c1-2-9-7-5-3-4-6-8(7)10(11)12-9/h3-6,9H,2H2,1H3",VMTZKGPXYYJUAR-UHFFFAOYSA-N,CCC1OC(=O)c2ccccc12,-1.7469999999999999
2511,B-2512,metolazone,"InChI=1S/C16H16ClN3O3S/c1-9-5-3-4-6-14(9)20-10(2)19-13-8-12(17)15(24(18,22)23)7-11(13)16(20)21/h3-8,10,19H,1-2H3,(H2,18,22,23)",AQCHWTWZEMGIFD-UHFFFAOYSA-N,CC1Nc2cc(Cl)c(cc2C(=O)N1c3ccccc3C)[S](N)(=O)=O,-3.783
2512,B-2513,"1,2,4-triazin-3-amine, 5,6-dimethyl-","InChI=1S/C5H8N4/c1-3-4(2)8-9-5(6)7-3/h1-2H3,(H2,6,7,9)",UIKGLXJNZXSPGV-UHFFFAOYSA-N,Cc1nnc(N)nc1C,-1.0939
2513,B-2514,bensultap,"InChI=1S/C17H21NO4S4/c1-18(2)15(13-23-25(19,20)16-9-5-3-6-10-16)14-24-26(21,22)17-11-7-4-8-12-17/h3-12,15H,13-14H2,1-2H3",YFXPPSKYMBTNAV-UHFFFAOYSA-N,CN(C)C(CS[S](=O)(=O)c1ccccc1)CS[S](=O)(=O)c2ccccc2,-5.76
2514,B-2515,"butanedinitrile, ethyl-","InChI=1S/C6H8N2/c1-2-6(5-8)3-4-7/h6H,2-3H2,1H3",GDCJAPJJFZWILF-UHFFFAOYSA-N,CCC(CC#N)C#N,-0.6916
2515,B-2516,amicetin,"InChI=1S/C29H42N6O9/c1-15-19(44-26-24(38)23(37)22(34(4)5)16(2)43-26)10-11-21(42-15)35-13-12-20(33-28(35)41)32-25(39)17-6-8-18(9-7-17)31-27(40)29(3,30)14-36/h6-9,12-13,15-16,19,21-24,26,36-38H,10-11,14,30H2,1-5H3,(H,31,40)(H,32,33,39,41)",HDNVYHWHCVTDIV-UHFFFAOYSA-N,CC1OC(CCC1OC2OC(C)C(C(O)C2O)N(C)C)N3C=CC(=NC3=O)NC(=O)c4ccc(NC(=O)C(C)(N)CO)cc4,-2.4904
2516,B-2517,"1,2-benzenedicarboxylic acid, mono(2-hydroxyethy","InChI=1S/C10H10O5/c11-5-6-15-10(14)8-4-2-1-3-7(8)9(12)13/h1-4,11H,5-6H2,(H,12,13)",NTINFTOOVNKGIU-UHFFFAOYSA-N,OCCOC(=O)c1ccccc1C(O)=O,-1.4825
2517,B-2518,benomyl,"InChI=1S/C14H18N4O3/c1-3-4-9-15-13(19)18-11-8-6-5-7-10(11)16-12(18)17-14(20)21-2/h5-8H,3-4,9H2,1-2H3,(H,15,19)(H,16,17,20)",RIOXQFHNBCKOKP-UHFFFAOYSA-N,CCCCNC(=O)n1c(NC(=O)OC)nc2ccccc12,-4.8831
2518,B-2519,"d-valine, n-acetyl-","InChI=1S/C7H13NO3/c1-4(2)6(7(10)11)8-5(3)9/h4,6H,1-3H3,(H,8,9)(H,10,11)",IHYJTAOFMMMOPX-UHFFFAOYSA-N,CC(C)C(NC(C)=O)C(O)=O,-0.3606
2519,B-2520,"phenol, 4-amino-2,6-dinitro-","InChI=1S/C6H5N3O5/c7-3-1-4(8(11)12)6(10)5(2-3)9(13)14/h1-2,10H,7H2",TTXPIURLJOPGTE-UHFFFAOYSA-N,Nc1cc(c(O)c(c1)[N+]([O-])=O)[N+]([O-])=O,-2.3853
2520,B-2521,fentiazac,"InChI=1S/C17H12ClNO2S/c18-13-8-6-11(7-9-13)16-14(10-15(20)21)22-17(19-16)12-4-2-1-3-5-12/h1-9H,10H2,(H,20,21)",JIEKMACRVQTPRC-UHFFFAOYSA-N,OC(=O)Cc1sc(nc1c2ccc(Cl)cc2)c3ccccc3,-4.9644
2521,B-2522,"1-pentene, 5-isothiocyanato-","InChI=1S/C6H9NS/c1-2-3-4-5-7-6-8/h2H,1,3-5H2",DBISBKDNOKIADM-UHFFFAOYSA-N,C=CCCCN=C=S,-2.9004
2522,B-2523,"[1,1'-biphenyl]-3-ol, 4-nitro-","InChI=1S/C12H9NO3/c14-12-8-10(6-7-11(12)13(15)16)9-4-2-1-3-5-9/h1-8,14H",HYPKGPVDQYUOSV-UHFFFAOYSA-N,Oc1cc(ccc1[N+]([O-])=O)c2ccccc2,-3.8557
2523,B-2524,"benzaldehyde, 4-hydroxy-3-methoxy-2-methyl-","InChI=1S/C9H10O3/c1-6-7(5-10)3-4-8(11)9(6)12-2/h3-5,11H,1-2H3",NHXMRQITQSBVLJ-UHFFFAOYSA-N,COc1c(C)c(C=O)ccc1O,-1.3755
2524,B-2525,"benzoic acid, 4-amino-, 1-methylethyl ester","InChI=1S/C10H13NO2/c1-7(2)13-10(12)8-3-5-9(11)6-4-8/h3-7H,11H2,1-2H3",JWCPZKNBPMSYND-UHFFFAOYSA-N,CC(C)OC(=O)c1ccc(N)cc1,-2.6099
2525,B-2526,"isopropyl 4,4'dibromobenzilate","InChI=1S/C17H16Br2O3/c1-11(2)22-16(20)17(21,12-3-7-14(18)8-4-12)13-5-9-15(19)10-6-13/h3-11,21H,1-2H3",FOANIXZHAMJWOI-UHFFFAOYSA-N,CC(C)OC(=O)C(O)(c1ccc(Br)cc1)c2ccc(Br)cc2,-6.6316
2526,B-2527,"1-propanamine, 3-(trimethylsilyl)-","InChI=1S/C6H17NSi/c1-8(2,3)6-4-5-7/h4-7H2,1-3H3",PFRLCKFENIXNMM-UHFFFAOYSA-N,C[Si](C)(C)CCCN,-1.9509
2527,B-2528,"hydrazinecarboximidamide, n-nitro-","InChI=1S/CH5N5O2/c2-1(4-3)5-6(7)8/h3H2,(H3,2,4,5)",LWPLPMSGDZDOLW-UHFFFAOYSA-N,NNC(=N)N[N+]([O-])=O,-1.6458
2528,B-2529,"benzenemethanol, 4-iodo-","InChI=1S/C7H7IO/c8-7-3-1-6(5-9)2-4-7/h1-4,9H,5H2",CNQRHSZYVFYOIE-UHFFFAOYSA-N,OCc1ccc(I)cc1,-2.7460000000000004
2529,B-2530,"1,2-cyclohexanedione, 3-methyl-, dioxime","InChI=1S/C7H12N2O2/c1-5-3-2-4-6(8-10)7(5)9-11/h5,10-11H,2-4H2,1H3",KVMQRKQPHOCZHY-UHFFFAOYSA-N,CC1CCCC(=NO)C1=NO,-1.5916
2530,B-2531,"1,2-cyclohexanedione, 4-methyl-, dioxime","InChI=1S/C7H12N2O2/c1-5-2-3-6(8-10)7(4-5)9-11/h5,9,11H,2-4H2,1H3",GJADLHDOELLEFC-UHFFFAOYSA-N,CC1CCC(=C(C1)NO)N=O,-1.6622
2531,B-2532,"1,2-cyclohexanedione, 4-isopropyl-, dioxime","InChI=1S/C9H16N2O2/c1-6(2)7-3-4-8(10-12)9(5-7)11-13/h6-7,12-13H,3-5H2,1-2H3",NYHAZDHVIPVSDM-UHFFFAOYSA-N,CC(C)C1CCC(=NO)C(C1)=NO,-2.3903
2532,B-2533,"l-alanine, n-(aminocarbonyl)-","InChI=1S/C4H8N2O3/c1-2(3(7)8)6-4(5)9/h2H,1H3,(H,7,8)(H3,5,6,9)/p-1/t2-/m0/s1",LUSWEUMSEVLFEQ-REOHCLBHSA-M,C[C@H](NC(N)=O)C([O-])=O,-0.9656
2533,B-2534,"benz(a)anthracene-4,5-dimethylene","InChI=1S/C20H16/c1-13-6-5-9-18-19-12-16-8-4-3-7-15(16)11-17(19)10-14(2)20(13)18/h3-12H,1-2H3",XVSYIHPFNPQXRA-UHFFFAOYSA-N,Cc1cccc2c3cc4ccccc4cc3cc(C)c12,-7.9743
2534,B-2535,"1,2-cyclodecanedione, dioxime","InChI=1S/C10H18N2O2/c13-11-9-7-5-3-1-2-4-6-8-10(9)12-14/h13-14H,1-8H2",SUIIPPMGDURFRE-UHFFFAOYSA-N,ON=C1CCCCCCCCC1=NO,-2.5813
2535,B-2536,"2-cyclopenta[c]pyran-4-carboxylic acid, 1-(á-d-g","InChI=1S/C17H26O10/c1-6-9(19)3-7-8(15(23)24-2)5-25-16(11(6)7)27-17-14(22)13(21)12(20)10(4-18)26-17/h5-7,9-14,16-22H,3-4H2,1-2H3/t6-,7+,9-,10+,11+,12+,13-,14+,16-,17-/m0/s1",AMBQHHVBBHTQBF-UOUCRYGSSA-N,COC(=O)C1=CO[C@@H](O[C@@H]2O[C@H](CO)[C@@H](O)[C@H](O)[C@H]2O)[C@@H]3[C@@H](C)[C@@H](O)C[C@H]13,-0.5911
2536,B-2537,norea,"InChI=1S/C13H22N2O/c1-15(2)13(16)14-12-7-8-6-11(12)10-5-3-4-9(8)10/h8-12H,3-7H2,1-2H3,(H,14,16)",YGLMVCVJLXREAK-UHFFFAOYSA-N,CN(C)C(=O)NC1CC2CC1C3CCCC23,-3.1709
2537,B-2538,"ethanesulfinothioic acid, s-ethyl ester","InChI=1S/C4H10OS2/c1-3-6-7(5)4-2/h3-4H2,1-2H3",FIWQKOIUXFENIV-UHFFFAOYSA-N,CCS[S](=O)CC,-0.0993
2538,B-2539,albuterol,"InChI=1S/C13H21NO3/c1-13(2,3)14-7-12(17)9-4-5-11(16)10(6-9)8-15/h4-6,12,14-17H,7-8H2,1-3H3",NDAUXUAQIAJITI-UHFFFAOYSA-N,CC(C)(C)NCC(O)c1ccc(O)c(CO)c1,-1.2298
2539,B-2540,"2h-pyran, tetrahydro-2-methoxy-6-methyl-","InChI=1S/C7H14O2/c1-6-4-3-5-7(8-2)9-6/h6-7H,3-5H2,1-2H3",FNEUIJOQHOUXIE-UHFFFAOYSA-N,COC1CCCC(C)O1,-0.5921
2540,B-2541,"2-oxabicyclo[2.2.2]octan-6-one, 1,3,3-trimethyl-","InChI=1S/C10H16O2/c1-9(2)7-4-5-10(3,12-9)8(11)6-7/h7H,4-6H2,1-3H3",CCBAAZXPXFYPBE-UHFFFAOYSA-N,CC1(C)OC2(C)CCC1CC2=O,-0.9249
2541,B-2542,methabenzthiazuron,"InChI=1S/C10H11N3OS/c1-11-9(14)13(2)10-12-7-5-3-4-6-8(7)15-10/h3-6H,1-2H3,(H,11,14)",RRVIAQKBTUQODI-UHFFFAOYSA-N,CNC(=O)N(C)c1sc2ccccc2n1,-3.5741
2542,B-2543,"3-heptanol, 2-methyl-","InChI=1S/C8H18O/c1-4-5-6-8(9)7(2)3/h7-9H,4-6H2,1-3H3",QGVFLDUEHSIZIG-UHFFFAOYSA-N,CCCCC(O)C(C)C,-1.8122
2543,B-2544,"3-heptanol, 5-methyl-","InChI=1S/C8H18O/c1-4-7(3)6-8(9)5-2/h7-9H,4-6H2,1-3H3",SECKOSOTZOBWEI-UHFFFAOYSA-N,CCC(C)CC(O)CC,-1.8602
2544,B-2545,ethylisopentylcarbinol,"InChI=1S/C8H18O/c1-4-8(9)6-5-7(2)3/h7-9H,4-6H2,1-3H3",MNBIBGDICHMQFN-UHFFFAOYSA-N,CCC(O)CCC(C)C,-1.9272
2545,B-2546,"2,5-selenophenedicarboxylic acid, tetrahydro-","InChI=1S/C6H8O4Se/c7-5(8)3-1-2-4(11-3)6(9)10/h3-4H,1-2H2,(H,7,8)(H,9,10)",WFKGWJKGEDFLTH-UHFFFAOYSA-N,OC(=O)C1CCC([Se]1)C(O)=O,-0.545
2546,B-2547,isoxathion,"InChI=1S/C13H16NO4PS/c1-3-15-19(20,16-4-2)18-13-10-12(17-14-13)11-8-6-5-7-9-11/h5-10H,3-4H2,1-2H3",SDMSCIWHRZJSRN-UHFFFAOYSA-N,CCO[P](=S)(OCC)Oc1cc(on1)c2ccccc2,-5.2172
2547,B-2548,"butanoic acid, 3-methyl-, 4-nitrophenyl ester","InChI=1S/C11H13NO4/c1-8(2)7-11(13)16-10-5-3-9(4-6-10)12(14)15/h3-6,8H,7H2,1-2H3",SZQWZNOMEWDZLR-UHFFFAOYSA-N,CC(C)CC(=O)Oc1ccc(cc1)[N+]([O-])=O,-4.3945
2548,B-2549,"benzenemethanol, 2-bromo-","InChI=1S/C7H7BrO/c8-7-4-2-1-3-6(7)5-9/h1-4,9H,5H2",IOWGHQGLUMEZKG-UHFFFAOYSA-N,OCc1ccccc1Br,-2.158
2549,B-2550,oryzalin,"InChI=1S/C12H18N4O6S/c1-3-5-14(6-4-2)12-10(15(17)18)7-9(23(13,21)22)8-11(12)16(19)20/h7-8H,3-6H2,1-2H3,(H2,13,21,22)",UNAHYJYOSSSJHH-UHFFFAOYSA-N,CCCN(CCC)c1c(cc(cc1[N+]([O-])=O)[S](N)(=O)=O)[N+]([O-])=O,-5.1416
2550,B-2551,"acetamide, n- 4- (2-pyridinylamino)sulfonyl phen","InChI=1S/C13H13N3O3S/c1-10(17)15-11-5-7-12(8-6-11)20(18,19)16-13-4-2-3-9-14-13/h2-9H,1H3,(H,14,16)(H,15,17)",CYLYVXPHAQLXFG-UHFFFAOYSA-N,CC(=O)Nc1ccc(cc1)[S](=O)(=O)Nc2ccccn2,-3.7162
2551,B-2552,"2,4-pteridinediamine, 6,7-diethyl-","InChI=1S/C10H14N6/c1-3-5-6(4-2)14-9-7(13-5)8(11)15-10(12)16-9/h3-4H2,1-2H3,(H4,11,12,14,15,16)",BUZKILZDXOORCH-UHFFFAOYSA-N,CCc1nc2nc(N)nc(N)c2nc1CC,-3.2671
2552,B-2553,"pteridine, 2-(methylamino)-","InChI=1S/C7H7N5/c1-8-7-11-4-5-6(12-7)10-3-2-9-5/h2-4H,1H3,(H,8,10,11,12)",FCJSISFRKUULPL-UHFFFAOYSA-N,CNc1ncc2nccnc2n1,-1.7124
2553,B-2554,"nicotinamide, n-(6-methoxy-8-quinolyl)-","InChI=1S/C16H13N3O2/c1-21-13-8-11-4-3-7-18-15(11)14(9-13)19-16(20)12-5-2-6-17-10-12/h2-10H,1H3,(H,19,20)",ZWJRCYOUDPYYAQ-UHFFFAOYSA-N,COc1cc(NC(=O)c2cccnc2)c3ncccc3c1,-4.4461
2554,B-2555,polyoxin b,"InChI=1S/C17H25N5O13/c18-6(8(25)5(24)3-34-16(19)32)13(29)20-7(15(30)31)11-9(26)10(27)14(35-11)22-1-4(2-23)12(28)21-17(22)33/h1,5-11,14,23-27H,2-3,18H2,(H2,19,32)(H,20,29)(H,30,31)(H,21,28,33)/t5-,6-,7-,8+,9?,10?,11+,14+/m0/s1",YFZNSPMAOIVQRP-KMJOXCMOSA-N,N[C@@H]([C@H](O)[C@@H](O)COC(N)=O)C(=O)N[C@@H]([C@H]1O[C@H](C(O)C1O)N2C=C(CO)C(=O)NC2=O)C(O)=O,0.2946
2555,B-2556,5-chlorovanillin,"InChI=1S/C8H7ClO3/c1-12-7-3-5(4-10)2-6(9)8(7)11/h2-4,11H,1H3",ONIVKFDMLVBDRK-UHFFFAOYSA-N,COc1cc(C=O)cc(Cl)c1O,-2.8747
2556,B-2557,"1(3h)-isobenzofuranone, 6-bromo-","InChI=1S/C8H5BrO2/c9-6-2-1-5-4-11-8(10)7(5)3-6/h1-3H,4H2",BELKVKMBIAENSA-UHFFFAOYSA-N,Brc1ccc2COC(=O)c2c1,-2.6472
2557,B-2558,"3,5-dimethyl-4-heptanol","InChI=1S/C9H20O/c1-5-7(3)9(10)8(4)6-2/h7-10H,5-6H2,1-4H3",ZKXITRNXHWEQJU-UHFFFAOYSA-N,CCC(C)C(O)C(C)CC,-2.5108
2558,B-2559,"1-butanol, 2,3-dimethyl-","InChI=1S/C6H14O/c1-5(2)6(3)4-7/h5-7H,4H2,1-3H3",SXSWMAUXEHKFGX-UHFFFAOYSA-N,CC(C)C(C)CO,-0.3699
2559,B-2560,"phenol, 2,4-dichloro-6-(phenylmethyl)-","InChI=1S/C13H10Cl2O/c14-11-7-10(13(16)12(15)8-11)6-9-4-2-1-3-5-9/h1-5,7-8,16H,6H2",MJTIYXIISJNFMG-UHFFFAOYSA-N,Oc1c(Cl)cc(Cl)cc1Cc2ccccc2,-4.6399
2560,B-2561,"1(3h)-isobenzofuranone, 6-chloro-","InChI=1S/C8H5ClO2/c9-6-2-1-5-4-11-8(10)7(5)3-6/h1-3H,4H2",NUAVXUHBPNMQEV-UHFFFAOYSA-N,Clc1ccc2COC(=O)c2c1,-2.4817
2561,B-2562,oxadiazon,"InChI=1S/C15H18Cl2N2O3/c1-8(2)21-12-7-11(9(16)6-10(12)17)19-14(20)22-13(18-19)15(3,4)5/h6-8H,1-5H3",CHNUNORXWHYHNE-UHFFFAOYSA-N,CC(C)Oc1cc(N2N=C(OC2=O)C(C)(C)C)c(Cl)cc1Cl,-5.693
2562,B-2563,"1-naphthoic acid, 4-ethoxy-","InChI=1S/C13H12O3/c1-2-16-12-8-7-11(13(14)15)9-5-3-4-6-10(9)12/h3-8H,2H2,1H3,(H,14,15)",AOKDTARDWHVNDE-UHFFFAOYSA-N,CCOc1ccc(C(O)=O)c2ccccc12,-4.1122
2563,B-2564,"1,2-butanediol, 2-methyl-1-phenyl-","InChI=1S/C11H16O2/c1-3-11(2,13)10(12)9-7-5-4-6-8-9/h4-8,10,12-13H,3H2,1-2H3",VUHBPPSSQKUCSE-UHFFFAOYSA-N,CCC(C)(O)C(O)c1ccccc1,-1.7244
2564,B-2565,"d-leucine, n-acetyl-","InChI=1S/C8H15NO3/c1-5(2)4-7(8(11)12)9-6(3)10/h5,7H,4H2,1-3H3,(H,9,10)(H,11,12)/t7-/m1/s1",WXNXCEHXYPACJF-SSDOTTSWSA-N,CC(C)C[C@@H](NC(C)=O)C(O)=O,-1.3301
2565,B-2566,"d-isoleucine, n-acetyl-","InChI=1S/C8H15NO3/c1-4-5(2)7(8(11)12)9-6(3)10/h5,7H,4H2,1-3H3,(H,9,10)(H,11,12)",JDTWZSUNGHMMJM-UHFFFAOYSA-N,CCC(C)C(NC(C)=O)C(O)=O,-0.6205
2566,B-2567,"dl-serine, o-methyl-","InChI=1S/C4H9NO3/c1-8-2-3(5)4(6)7/h3H,2,5H2,1H3,(H,6,7)/t3-/m0/s1",KNTFCRCCPLEUQZ-VKHMYHEASA-N,COC[C@H](N)C(O)=O,0.6524
2567,B-2568,"4(1h)-pyrimidinone, 5-bromo-","InChI=1S/C4H3BrN2O/c5-3-1-6-2-7-4(3)8/h1-2H,(H,6,7,8)",CLJIGLPOBRSBNU-UHFFFAOYSA-N,BrC1=CN=CNC1=O,-0.4471
2568,B-2569,"3-pyridinecarbonitrile, 6-chloro-1,2-dihydro-4-h","InChI=1S/C6H3ClN2O2/c7-5-1-4(10)3(2-8)6(11)9-5/h1H,(H2,9,10,11)",RXXVHWHDEKSPRL-UHFFFAOYSA-N,OC1=C(C#N)C(=O)C=C(Cl)N1,-1.2319
2569,B-2570,"propanoic acid, 3-hydroxy-2-methyl-, 2,3,3a,4,5,","InChI=1S/C19H26O6/c1-11-5-4-6-14(10-21)8-16-17(13(3)19(23)25-16)15(7-11)24-18(22)12(2)9-20/h5,8,12,15-17,20-21H,3-4,6-7,9-10H2,1-2H3/b11-5+,14-8-/t12?,15-,16+,17+/m0/s1",VOOFFTMORIBISQ-UMRVURNHSA-N,CC(CO)C(=O)O[C@H]1CC(=C/CCC(=C/[C@H]2OC(=O)C(=C)[C@H]12)/CO)/C,-2.2436
2570,B-2571,ethyl isopropylamine,"InChI=1S/C5H13N/c1-4-6-5(2)3/h5-6H,4H2,1-3H3",RIVIDPPYRINTTH-UHFFFAOYSA-N,CCNC(C)C,1.0597
2571,B-2572,"1,2,3,4-tetrachloronaphthalene",InChI=1S/C10H4Cl4/c11-7-5-3-1-2-4-6(5)8(12)10(14)9(7)13/h1-4H,NAQWICRLNQSPPW-UHFFFAOYSA-N,Clc1c(Cl)c(Cl)c2ccccc2c1Cl,-7.7954
2572,B-2573,"benzoic acid, 4-amino-, dodecyl ester","InChI=1S/C19H31NO2/c1-2-3-4-5-6-7-8-9-10-11-16-22-19(21)17-12-14-18(20)15-13-17/h12-15H,2-11,16,20H2,1H3",IXYYMEVNJZMVBN-UHFFFAOYSA-N,CCCCCCCCCCCCOC(=O)c1ccc(N)cc1,-7.8
2573,B-2574,"2-furaldehyde, 5-nitro-, 2-pentylsemicarbazone","InChI=1S/C11H16N4O4/c1-2-3-4-7-14(11(12)16)13-8-9-5-6-10(19-9)15(17)18/h5-6,8H,2-4,7H2,1H3,(H2,12,16)",WWWBXFHCAYRVDH-UHFFFAOYSA-N,CCCCCN(N=Cc1oc(cc1)[N+]([O-])=O)C(N)=O,-2.8971
2574,B-2575,"a-(2,2,2-trichloroethyl)styrene","InChI=1S/C10H9Cl3/c1-8(7-10(11,12)13)9-5-3-2-4-6-9/h2-6H,1,7H2",JNHUFDXYWPRKLK-UHFFFAOYSA-N,ClC(Cl)(Cl)CC(=C)c1ccccc1,-4.2822
2575,B-2576,cinmetacin,"InChI=1S/C21H19NO4/c1-14-17(13-21(24)25)18-12-16(26-2)9-10-19(18)22(14)20(23)11-8-15-6-4-3-5-7-15/h3-12H,13H2,1-2H3,(H,24,25)/b11-8+",NKPPORKKCMYYTO-DHZHZOJOSA-N,COc1ccc2n(c(C)c(CC(O)=O)c2c1)C(=O)\C=C\c3ccccc3,-5.5433
2576,B-2577,diethyl pentyl phosphate,"InChI=1S/C9H21O4P/c1-4-7-8-9-13-14(10,11-5-2)12-6-3/h4-9H2,1-3H3",ITJPTURSPJESQC-UHFFFAOYSA-N,CCCCCO[P](=O)(OCC)OCC,-1.4757
2577,B-2578,"l-alloisoleucine, n-acetyl-","InChI=1S/C8H15NO3/c1-4-5(2)7(8(11)12)9-6(3)10/h5,7H,4H2,1-3H3,(H,9,10)(H,11,12)",JDTWZSUNGHMMJM-UHFFFAOYSA-N,CCC(C)C(NC(C)=O)C(O)=O,-0.5981
2578,B-2579,"2-butanol, 3,3-dimethyl-, (.+-.)-","InChI=1S/C6H14O/c1-5(7)6(2,3)4/h5,7H,1-4H3",DFOXKPDFWGNLJU-UHFFFAOYSA-N,CC(O)C(C)(C)C,-0.6238