,ID,Name,InChI,InChIKey,SMILES,Solubility
628,B-629,ethylene glycol diacetate,"InChI=1S/C6H10O4/c1-5(7)9-3-4-10-6(2)8/h3-4H2,1-2H3",JTXMVXSTHSMVQF-UHFFFAOYSA-N,CC(=O)OCCOC(C)=O,0.0857
629,B-630,heptanal,"InChI=1S/C7H14O/c1-2-3-4-5-6-7-8/h7H,2-6H2,1H3",FXHGMKSSBGDXIY-UHFFFAOYSA-N,CCCCCCC=O,-1.9607
630,B-631,"ethanol, 2-(butylamino)-","InChI=1S/C6H15NO/c1-2-3-4-7-5-6-8/h7-8H,2-6H2,1H3",LJDSTRZHPWMDPG-UHFFFAOYSA-N,CCCCNCCO,0.9311
631,B-632,2-butoxyethanol,"InChI=1S/C6H14O2/c1-2-3-5-8-6-4-7/h7H,2-6H2,1H3",POAOYUHQDCAZBD-UHFFFAOYSA-N,CCCCOCCO,0.9275
632,B-633,diethylene glycol monomethyl ether,"InChI=1S/C5H12O3/c1-7-4-5-8-3-2-6/h6H,2-5H2,1H3",SBASXUCJHJRPEV-UHFFFAOYSA-N,COCCOCCO,0.9203
633,B-634,n-nonane,"InChI=1S/C9H20/c1-3-5-7-9-8-6-4-2/h3-9H2,1-2H3",BKIMMITUMNQMOS-UHFFFAOYSA-N,CCCCCCCCC,-5.7657
634,B-635,1-chlorooctane,"InChI=1S/C8H17Cl/c1-2-3-4-5-6-7-8-9/h2-8H2,1H3",CNDHHGUSRIZDSL-UHFFFAOYSA-N,CCCCCCCCCl,-4.4829
635,B-636,n-octylamine,"InChI=1S/C8H19N/c1-2-3-4-5-6-7-8-9/h2-9H2,1H3",IOQPZZOEVPZRBK-UHFFFAOYSA-N,CCCCCCCCN,-2.8104
636,B-637,diethylene glycol monoethyl ether,"InChI=1S/C6H14O3/c1-2-8-5-6-9-4-3-7/h7H,2-6H2,1H3",XXJWXESWEXIICW-UHFFFAOYSA-N,CCOCCOCCO,0.8723
637,B-638,bis(2-chloroethoxy)methane,InChI=1S/C5H10Cl2O2/c6-1-3-8-5-9-4-2-7/h1-5H2,NLXGURFLBLRZRO-UHFFFAOYSA-N,ClCCOCOCCCl,-1.3461
638,B-639,2-methoxyethylether,"InChI=1S/C6H14O3/c1-7-3-5-9-6-4-8-2/h3-6H2,1-2H3",SBZXBUIDTXKZTM-UHFFFAOYSA-N,COCCOCCOC,0.8723
639,B-640,2-butoxyethanol acetate,"InChI=1S/C8H16O3/c1-3-4-5-10-6-7-11-8(2)9/h3-7H2,1-2H3",NQBXSWAWVZHKBZ-UHFFFAOYSA-N,CCCCOCCOC(C)=O,-1.2504
640,B-641,carbitol acetate,"InChI=1S/C8H16O4/c1-3-10-4-5-11-6-7-12-8(2)9/h3-7H2,1-2H3",FPZWZCWUIYYYBU-UHFFFAOYSA-N,CCOCCOCCOC(C)=O,0.754
641,B-642,triethylenetetraamine,"InChI=1S/C6H18N4/c7-1-3-9-5-6-10-4-2-8/h9-10H,1-8H2",VILCJCGEZXAXTO-UHFFFAOYSA-N,NCCNCCNCCN,1.5136
642,B-643,"1,2-bis(2-chloroethoxy)ethane",InChI=1S/C6H12Cl2O2/c7-1-3-9-5-6-10-4-2-8/h1-6H2,AGYUOJIYYGGHKV-UHFFFAOYSA-N,ClCCOCCOCCCl,-0.9955
643,B-644,triethylene glycol,"InChI=1S/C6H14O4/c7-1-3-9-5-6-10-4-2-8/h7-8H,1-6H2",ZIBGPFATKBEMQZ-UHFFFAOYSA-N,OCCOCCOCCO,0.8234
644,B-645,diethylene glycol mono-n-butyl ether,"InChI=1S/C8H18O3/c1-2-3-5-10-7-8-11-6-4-9/h9H,2-8H2,1H3",OAYXUHPQHDHDDZ-UHFFFAOYSA-N,CCCCOCCOCCO,0.7899
645,B-646,methoxy triethylene glycol,"InChI=1S/C7H16O4/c1-9-4-5-11-7-6-10-3-2-8/h8H,2-7H2,1H3",JLGLQAWTXXGVEM-UHFFFAOYSA-N,COCCOCCOCCO,0.7846
646,B-647,bis (2-ethoxy ethyl)  ether,"InChI=1S/C8H18O3/c1-3-9-5-7-11-8-6-10-4-2/h3-8H2,1-2H3",RRQYJINTUHWNHW-UHFFFAOYSA-N,CCOCCOCCOCC,0.7899
647,B-648,ethoxytriethylene glycol,"InChI=1S/C8H18O4/c1-2-10-5-6-12-8-7-11-4-3-9/h9H,2-8H2,1H3",WFSMVVDJSNMRAR-UHFFFAOYSA-N,CCOCCOCCOCCO,0.7490000000000001
648,B-649,tetraethylenepentamine,"InChI=1S/C8H23N5/c9-1-3-11-5-7-13-8-6-12-4-2-10/h11-13H,1-10H2",FAGUFWYHJQFNRV-UHFFFAOYSA-N,NCCNCCNCCNCCN,1.5381
649,B-650,"ethanol, 2- 2-(hexyloxy)ethoxy -","InChI=1S/C10H22O3/c1-2-3-4-5-7-12-9-10-13-8-6-11/h11H,2-10H2,1H3",GZMAAYIALGURDQ-UHFFFAOYSA-N,CCCCCCOCCOCCO,-1.0490000000000002
650,B-651,tetraethylene glycol,"InChI=1S/C8H18O5/c9-1-3-11-5-7-13-8-6-12-4-2-10/h9-10H,1-8H2",UWHCKJMYHZGTIT-UHFFFAOYSA-N,OCCOCCOCCOCCO,0.7117
651,B-652,1-tetradecanol,"InChI=1S/C14H30O/c1-2-3-4-5-6-7-8-9-10-11-12-13-14-15/h15H,2-14H2,1H3",HLZKNKRTKFSKGZ-UHFFFAOYSA-N,CCCCCCCCCCCCCCO,-6.0502
652,B-653,docosanoic acid,"InChI=1S/C22H44O2/c1-2-3-4-5-6-7-8-9-10-11-12-13-14-15-16-17-18-19-20-21-22(23)24/h2-21H2,1H3,(H,23,24)",UKMSUNONTOPOIO-UHFFFAOYSA-N,CCCCCCCCCCCCCCCCCCCCCC(O)=O,-7.3281
653,B-654,1-octadecanol,"InChI=1S/C18H38O/c1-2-3-4-5-6-7-8-9-10-11-12-13-14-15-16-17-18-19/h19H,2-18H2,1H3",GLDOVTGHNKAZLK-UHFFFAOYSA-N,CCCCCCCCCCCCCCCCCCO,-8.3908
654,B-655,eicosane,"InChI=1S/C20H42/c1-3-5-7-9-11-13-15-17-19-20-18-16-14-12-10-8-6-4-2/h3-20H2,1-2H3",CBFCDTFDPHXCNY-UHFFFAOYSA-N,CCCCCCCCCCCCCCCCCCCC,-8.1724
655,B-656,propoxur,"InChI=1S/C11H15NO3/c1-8(2)14-9-6-4-5-7-10(9)15-11(13)12-3/h4-8H,1-3H3,(H,12,13)",ISRUGXGCCGIOQO-UHFFFAOYSA-N,CNC(=O)Oc1ccccc1OC(C)C,-2.0512
656,B-657,propene,"InChI=1S/C3H6/c1-3-2/h3H,1H2,2H3",QQONPFPTGQHPMA-UHFFFAOYSA-N,CC=C,-2.3231
657,B-658,"3-buten-2-ol, 2-methyl-","InChI=1S/C5H10O/c1-4-5(2,3)6/h4,6H,1H2,2-3H3",HNVRRHSXBLFLIG-UHFFFAOYSA-N,CC(C)(O)C=C,1.0648
658,B-659,2-methyl-3-butyn-2-ol,"InChI=1S/C5H8O/c1-4-5(2,3)6/h1,6H,2-3H3",CEBKHWWANWSNTI-UHFFFAOYSA-N,CC(C)(O)C#C,1.0751
659,B-660,perfluorocyclobutane,"InChI=1S/C4F8/c5-1(6)2(7,8)4(11,12)3(1,9)10",BCCOBQSFUDVTJQ-UHFFFAOYSA-N,FC1(F)C(F)(F)C(F)(F)C1(F)F,-3.9276
660,B-661,dimefox,"InChI=1S/C4H12FN2OP/c1-6(2)9(5,8)7(3)4/h1-4H3",PGJBQBDNXAZHBP-UHFFFAOYSA-N,CN(C)[P](F)(=O)N(C)C,0.8121
661,B-662,chlorendic acid,"InChI=1S/C9H4Cl6O4/c10-3-4(11)8(13)2(6(18)19)1(5(16)17)7(3,12)9(8,14)15/h1-2H,(H,16,17)(H,18,19)",DJKGDNKYTKCJKD-UHFFFAOYSA-N,OC(=O)C1C(C(O)=O)C2(Cl)C(=C(Cl)C1(Cl)C2(Cl)Cl)Cl,-2.0457
662,B-663,2-amino-2-methylpropanediol,"InChI=1S/C4H11NO2/c1-4(5,2-6)3-7/h6-7H,2-3,5H2,1H3",UXFQFBNBSPQBJW-UHFFFAOYSA-N,CC(N)(CO)CO,0.9782
663,B-664,"1,3-propanediol, 2-amino-2-ethyl-","InChI=1S/C5H13NO2/c1-2-5(6,3-7)4-8/h7-8H,2-4,6H2,1H3",IOAOAKDONABGPZ-UHFFFAOYSA-N,CCC(N)(CO)CO,0.9239
664,B-665,"2,2-diethyl-1,3-propanediol","InChI=1S/C7H16O2/c1-3-7(4-2,5-8)6-9/h8-9H,3-6H2,1-2H3",XRVCFZPJAHWYTB-UHFFFAOYSA-N,CCC(CC)(CO)CO,0.1798
665,B-666,pentaerythritol,"InChI=1S/C5H12O4/c6-1-5(2-7,3-8)4-9/h6-9H,1-4H2",WXZMFSXDPGVJKK-UHFFFAOYSA-N,OCC(CO)(CO)CO,-0.2749
666,B-667,octyldiphenyl phosphate,"InChI=1S/C20H27O4P/c1-2-3-4-5-6-13-18-22-25(21,23-19-14-9-7-10-15-19)24-20-16-11-8-12-17-20/h7-12,14-17H,2-6,13,18H2,1H3",YAFOVCNAQTZDQB-UHFFFAOYSA-N,CCCCCCCCO[P](=O)(Oc1ccccc1)Oc2ccccc2,-6.4131
667,B-668,diphenylmethyl phosphate,"InChI=1S/C13H13O4P/c1-15-18(14,16-12-8-4-2-5-9-12)17-13-10-6-3-7-11-13/h2-11H,1H3",VOWPVJACXJNHBC-UHFFFAOYSA-N,CO[P](=O)(Oc1ccccc1)Oc2ccccc2,-2.1209
668,B-669,tri-2-chloroethyl phosphate,"InChI=1S/C6H12Cl3O4P/c7-1-4-11-14(10,12-5-2-8)13-6-3-9/h1-6H2",HQUQLFOMPYWACS-UHFFFAOYSA-N,ClCCO[P](=O)(OCCCl)OCCCl,-1.6105
669,B-670,ethoate methyl,"InChI=1S/C6H14NO3PS2/c1-4-7-6(8)5-13-11(12,9-2)10-3/h4-5H2,1-3H3,(H,7,8)",DICRHEJCQXFJBY-UHFFFAOYSA-N,CCNC(=O)CS[P](=S)(OC)OC,-1.4567
670,B-671,aldicarb,"InChI=1S/C7H14N2O2S/c1-7(2,12-4)5-9-11-6(10)8-3/h5H,1-4H3,(H,8,10)/b9-5+",QGLZXHRNAYXIBU-WEVVVXLNSA-N,CNC(=O)O\N=C\C(C)(C)SC,-1.4991
671,B-672,hydroxyacetone,"InChI=1S/C3H6O2/c1-3(5)2-4/h4H,2H2,1H3",XLSMFKSTNGKWQX-UHFFFAOYSA-N,CC(=O)CO,1.1303
672,B-673,isopropenyl methyl ether,"InChI=1S/C4H8O/c1-4(2)5-3/h1H2,2-3H3",YOWQWFMSQCOSBA-UHFFFAOYSA-N,COC(C)=C,1.1420000000000001
673,B-674,tetrafluoroethylene,InChI=1S/C2F4/c3-1(4)2(5)6,BFKJFAAPBSQJPD-UHFFFAOYSA-N,FC(F)=C(F)F,-2.8001
674,B-675,"1-(hydroxymethyl)-5,5-dimethylhydantoin","InChI=1S/C6H10N2O3/c1-6(2)4(10)7-5(11)8(6)3-9/h9H,3H2,1-2H3,(H,7,10,11)",SIQZJFKTROUNPI-UHFFFAOYSA-N,CC1(C)N(CO)C(=O)NC1=O,0.8009
675,B-676,tetradifon,"InChI=1S/C12H6Cl4O2S/c13-7-1-3-8(4-2-7)19(17,18)12-6-10(15)9(14)5-11(12)16/h1-6H",MLGCXEBRWGEOQX-UHFFFAOYSA-N,Clc1ccc(cc1)[S](=O)(=O)c2cc(Cl)c(Cl)cc2Cl,-6.6594
676,B-677,"butanoic acid, 2-methyl-","InChI=1S/C5H10O2/c1-3-4(2)5(6)7/h4H,3H2,1-2H3,(H,6,7)",WLAMNBDJUVNPJU-UHFFFAOYSA-N,CCC(C)C(O)=O,-0.3559
677,B-678,1-amino-4-hydroxyanthraquinone,"InChI=1S/C14H9NO3/c15-9-5-6-10(16)12-11(9)13(17)7-3-1-2-4-8(7)14(12)18/h1-6,16H,15H2",AQXYVFBSOOBBQV-UHFFFAOYSA-N,Nc1ccc(O)c2C(=O)c3ccccc3C(=O)c12,-3.824
678,B-679,"1,5-anthraquinonedisulfonic acid","InChI=1S/C14H8O8S2/c15-13-7-3-1-5-9(23(17,18)19)11(7)14(16)8-4-2-6-10(12(8)13)24(20,21)22/h1-6H,(H,17,18,19)(H,20,21,22)",OZTBHAGJSKTDGM-UHFFFAOYSA-N,O[S](=O)(=O)c1cccc2C(=O)c3c(cccc3[S](O)(=O)=O)C(=O)c12,0.2572
679,B-680,2-aminoanthraquinone,"InChI=1S/C14H9NO2/c15-8-5-6-11-12(7-8)14(17)10-4-2-1-3-9(10)13(11)16/h1-7H,15H2",XOGPDSATLSAZEK-UHFFFAOYSA-N,Nc1ccc2C(=O)c3ccccc3C(=O)c2c1,-6.1366
680,B-681,dichlone,InChI=1S/C10H4Cl2O2/c11-7-8(12)10(14)6-4-2-1-3-5(6)9(7)13/h1-4H,SVPKNMBRVBMTLB-UHFFFAOYSA-N,ClC1=C(Cl)C(=O)c2ccccc2C1=O,-4.453
681,B-682,bis(methoxyethyl)phthalate,"InChI=1S/C14H18O6/c1-17-7-9-19-13(15)11-5-3-4-6-12(11)14(16)20-10-8-18-2/h3-6H,7-10H2,1-2H3",HSUIVCLOAAJSRE-UHFFFAOYSA-N,COCCOC(=O)c1ccccc1C(=O)OCCOC,-1.5213
682,B-683,dioctyl phthalate,"InChI=1S/C24H38O4/c1-3-5-7-9-11-15-19-27-23(25)21-17-13-14-18-22(21)24(26)28-20-16-12-10-8-6-4-2/h13-14,17-18H,3-12,15-16,19-20H2,1-2H3",MQIUGAXCHLFZKX-UHFFFAOYSA-N,CCCCCCCCOC(=O)c1ccccc1C(=O)OCCCCCCCC,-7.2493
683,B-684,hydrastine,"InChI=1S/C21H21NO6/c1-22-7-6-11-8-15-16(27-10-26-15)9-13(11)18(22)19-12-4-5-14(24-2)20(25-3)17(12)21(23)28-19/h4-5,8-9,18-19H,6-7,10H2,1-3H3",JZUTXVTYJDCMDU-UHFFFAOYSA-N,COc1ccc2C(OC(=O)c2c1OC)C3N(C)CCc4cc5OCOc5cc34,-4.1065
684,B-685,cinchonine,"InChI=1S/C19H22N2O/c1-2-13-12-21-10-8-14(13)11-18(21)19(22)16-7-9-20-17-6-4-3-5-15(16)17/h2-7,9,13-14,18-19,22H,1,8,10-12H2/t13-,14-,18+,19-/m0/s1",KMPWYEUPVWOPIM-QAMTZSDWSA-N,O[C@H]([C@H]1C[C@@H]2CCN1C[C@@H]2C=C)c3ccnc4ccccc34,-3.0887
685,B-686,"1-naphthalenamine, n-ethyl-","InChI=1S/C12H13N/c1-2-13-12-9-5-7-10-6-3-4-8-11(10)12/h3-9,13H,2H2,1H3",KDFFXYVOTKKBDI-UHFFFAOYSA-N,CCNc1cccc2ccccc12,-3.1922
686,B-687,"1,3-dichloro-5,5-dimethylhydantoin",InChI=1S/C5H6Cl2N2O2/c1-5(2)3(10)8(6)4(11)9(5)7/h1-2H3,KEQGZUUPPQEDPF-UHFFFAOYSA-N,CC1(C)N(Cl)C(=O)N(Cl)C1=O,-2.5955
687,B-688,phenyl 2-hydroxybenzoate,"InChI=1S/C13H10O3/c14-12-9-5-4-8-11(12)13(15)16-10-6-2-1-3-7-10/h1-9,14H",ZQBAKBUEJOMQEX-UHFFFAOYSA-N,Oc1ccccc1C(=O)Oc2ccccc2,-3.1548
688,B-689,chloranil,InChI=1S/C6Cl4O2/c7-1-2(8)6(12)4(10)3(9)5(1)11,UGNWTBMOAKPKBL-UHFFFAOYSA-N,ClC1=C(Cl)C(=O)C(=C(Cl)C1=O)Cl,-2.9928
689,B-690,4-chloro-1-nitro-2(trifluoromethyl)benzene,"InChI=1S/C7H3ClF3NO2/c8-4-1-2-6(12(13)14)5(3-4)7(9,10)11/h1-3H",CFPIGEXZPWTNOR-UHFFFAOYSA-N,[O-][N+](=O)c1ccc(Cl)cc1C(F)(F)F,-3.3533
690,B-691,pyridaphenthion,"InChI=1S/C14H17N2O4PS/c1-3-18-21(22,19-4-2)20-13-10-11-14(17)16(15-13)12-8-6-5-7-9-12/h5-11H,3-4H2,1-2H3",CXJSOEPQXUCJSA-UHFFFAOYSA-N,CCO[P](=S)(OCC)OC1=NN(C(=O)C=C1)c2ccccc2,-3.5319
691,B-692,"p-(2,4-dinitroaniline)phenol","InChI=1S/C12H9N3O5/c16-10-4-1-8(2-5-10)13-11-6-3-9(14(17)18)7-12(11)15(19)20/h1-7,13,16H",BCPQALWAROJVLE-UHFFFAOYSA-N,Oc1ccc(Nc2ccc(cc2[N+]([O-])=O)[N+]([O-])=O)cc1,-5.444
692,B-693,"2-naphthalenesulfonic acid, 4-hydroxy-6-(phenyla","InChI=1S/C16H13NO4S/c18-16-10-14(22(19,20)21)8-11-6-7-13(9-15(11)16)17-12-4-2-1-3-5-12/h1-10,17-18H,(H,19,20,21)",QEAYLNJEDDOYNQ-UHFFFAOYSA-N,Oc1cc(cc2ccc(Nc3ccccc3)cc12)[S](O)(=O)=O,-1.9763
693,B-694,isolan,"InChI=1S/C10H17N3O2/c1-7(2)13-9(6-8(3)11-13)15-10(14)12(4)5/h6-7H,1-5H3",RNNBHZYEKNHLKT-UHFFFAOYSA-N,CC(C)n1nc(C)cc1OC(=O)N(C)C,0.6752
694,B-695,bis (2-hydroxy-3tert-butyl-5-methylphenyl) metha,"InChI=1S/C23H32O2/c1-14-9-16(20(24)18(11-14)22(3,4)5)13-17-10-15(2)12-19(21(17)25)23(6,7)8/h9-12,24-25H,13H2,1-8H3",KGRVJHAUYBGFFP-UHFFFAOYSA-N,Cc1cc(Cc2cc(C)cc(c2O)C(C)(C)C)c(O)c(c1)C(C)(C)C,-7.2311
695,B-696,dimorpholamine,"InChI=1S/C20H38N4O4/c1-3-5-7-21(19(25)23-11-15-27-16-12-23)9-10-22(8-6-4-2)20(26)24-13-17-28-18-14-24/h3-18H2,1-2H3",HZTMGWSBSDLALI-UHFFFAOYSA-N,CCCCN(CCN(CCCC)C(=O)N1CCOCC1)C(=O)N2CCOCC2,0.0985
696,B-697,benzoin,"InChI=1S/C14H12O2/c15-13(11-7-3-1-4-8-11)14(16)12-9-5-2-6-10-12/h1-10,13,15H",ISAOCJYIOMOJEB-UHFFFAOYSA-N,OC(c1ccccc1)C(=O)c2ccccc2,-2.8497
697,B-698,"benzenemethanol, 4-chloro-.alpha.-phenyl-","InChI=1S/C13H11ClO/c14-12-8-6-11(7-9-12)13(15)10-4-2-1-3-5-10/h1-9,13,15H",AJYOOHCNOXWTKJ-UHFFFAOYSA-N,OC(c1ccccc1)c2ccc(Cl)cc2,-3.4886
698,B-699,tetralin,"InChI=1S/C10H12/c1-2-6-10-8-4-3-7-9(10)5-1/h1-2,5-6H,3-4,7-8H2",CXWXQJXEFPUFDZ-UHFFFAOYSA-N,C1CCc2ccccc2C1,-3.4492
699,B-700,"benzoic acid, 2-(methylamino)-","InChI=1S/C8H9NO2/c1-9-7-5-3-2-4-6(7)8(10)11/h2-5,9H,1H3,(H,10,11)",WVMBPWMAQDVZCM-UHFFFAOYSA-N,CNc1ccccc1C(O)=O,-2.8784
700,B-701,bianisidine,"InChI=1S/C14H16N2/c1-9-7-11(3-5-13(9)15)12-4-6-14(16)10(2)8-12/h3-8H,15-16H2,1-2H3",NUIURNJTPRWVAP-UHFFFAOYSA-N,Cc1cc(ccc1N)c2ccc(N)c(C)c2,-2.213
701,B-702,phenyldiethanolamine,"InChI=1S/C10H15NO2/c12-8-6-11(7-9-13)10-4-2-1-3-5-10/h1-5,12-13H,6-9H2",OJPDDQSCZGTACX-UHFFFAOYSA-N,OCCN(CCO)c1ccccc1,-0.7345
702,B-703,"benzaldehyde, 3,4-dimethoxy-","InChI=1S/C9H10O3/c1-11-8-4-3-7(6-10)5-9(8)12-2/h3-6H,1-2H3",WJUFSDZVCOTFON-UHFFFAOYSA-N,COc1ccc(C=O)cc1OC,-1.4199
703,B-704,"benzaldehyde, 4-ethoxy-3-methoxy-","InChI=1S/C10H12O3/c1-3-13-9-5-4-8(7-11)6-10(9)12-2/h4-7H,3H2,1-2H3",BERFDQAMXIBOHM-UHFFFAOYSA-N,CCOc1ccc(C=O)cc1OC,-2.1913
704,B-705,5-chloro-2-hydroxydiphenylmethane,"InChI=1S/C13H11ClO/c14-12-6-7-13(15)11(9-12)8-10-4-2-1-3-5-10/h1-7,9,15H,8H2",NCKMMSIFQUPKCK-UHFFFAOYSA-N,Oc1ccc(Cl)cc1Cc2ccccc2,-3.1666
705,B-706,dimethylterephthalate,"InChI=1S/C10H10O4/c1-13-9(11)7-3-5-8(6-4-7)10(12)14-2/h3-6H,1-2H3",WOZVHXUHUFLZGK-UHFFFAOYSA-N,COC(=O)c1ccc(cc1)C(=O)OC,-4.0095
706,B-707,1h-purine,"InChI=1S/C5H4N4/c1-4-5(8-2-6-1)9-3-7-4/h1-3H,(H,6,7,8,9)",KDCGOANMDULRCW-UHFFFAOYSA-N,[nH]1cnc2ncncc12,0.6194
707,B-708,"2,2'-dithiobisbenzothiazole",InChI=1S/C14H8N2S4/c1-3-7-11-9(5-1)15-13(17-11)19-20-14-16-10-6-2-4-8-12(10)18-14/h1-8H,AFZSMODLJJCVPP-UHFFFAOYSA-N,S(Sc1sc2ccccc2n1)c3sc4ccccc4n3,-4.5218
708,B-709,pyrethrin i,"InChI=1S/C21H28O3/c1-7-8-9-10-15-14(4)18(12-17(15)22)24-20(23)19-16(11-13(2)3)21(19,5)6/h7-9,11,16,18-19H,1,10,12H2,2-6H3/b9-8-/t16-,18+,19+/m1/s1",ROVGZAWFACYCSP-VUMXUWRFSA-N,CC(C)=C[C@@H]1[C@@H](C(=O)O[C@H]2CC(=O)C(=C2C)C\C=C/C=C)C1(C)C,-6.2155
709,B-710,pyrethrin ii,"InChI=1S/C22H28O5/c1-7-8-9-10-15-14(3)18(12-17(15)23)27-21(25)19-16(22(19,4)5)11-13(2)20(24)26-6/h7-9,11,16,18-19H,1,10,12H2,2-6H3/b9-8-,13-11+/t16-,18+,19+/m1/s1",VJFUPGQZSXIULQ-XIGJTORUSA-N,COC(=O)C(/C)=C/[C@@H]1[C@@H](C(=O)O[C@H]2CC(=O)C(=C2C)C\C=C/C=C)C1(C)C,-4.6168
710,B-711,"benzaldehyde, 3-ethoxy-4-hydroxy-","InChI=1S/C9H10O3/c1-2-12-9-5-7(6-10)3-4-8(9)11/h3-6,11H,2H2,1H3",CBOQJANXLMLOSS-UHFFFAOYSA-N,CCOc1cc(C=O)ccc1O,-1.7703
711,B-712,"benzenesulfonic acid, 4-amino-","InChI=1S/C6H7NO3S/c7-5-1-3-6(4-2-5)11(8,9)10/h1-4H,7H2,(H,8,9,10)",HVBSAKJJOYLTQU-UHFFFAOYSA-N,Nc1ccc(cc1)[S](O)(=O)=O,-1.2051
712,B-713,propyl gallate,"InChI=1S/C10H12O5/c1-2-3-15-10(14)6-4-7(11)9(13)8(12)5-6/h4-5,11-13H,2-3H2,1H3",ZTHYODDOHIVTJV-UHFFFAOYSA-N,CCCOC(=O)c1cc(O)c(O)c(O)c1,-1.7827
713,B-714,"1,3,5,-trinitrohexahydro-1,3,5-triazine",InChI=1S/C3H6N6O6/c10-7(11)4-1-5(8(12)13)3-6(2-4)9(14)15/h1-3H2,XTFIVUDBNACUBN-UHFFFAOYSA-N,[O-][N+](=O)N1CN(CN(C1)[N+]([O-])=O)[N+]([O-])=O,-3.5706
714,B-715,dimetan,"InChI=1S/C11H17NO3/c1-11(2)6-8(13)5-9(7-11)15-10(14)12(3)4/h5H,6-7H2,1-4H3",ITEQSCBLCCNACE-UHFFFAOYSA-N,CN(C)C(=O)OC1=CC(=O)CC(C)(C)C1,-0.8477
715,B-716,"2-propanol, 1,1',1''-nitrilotris-","InChI=1S/C9H21NO3/c1-7(11)4-10(5-8(2)12)6-9(3)13/h7-9,11-13H,4-6H2,1-3H3",SLINHMUFWFWBMU-UHFFFAOYSA-N,CC(O)CN(CC(C)O)CC(C)O,0.6374
716,B-717,phenyl glydidyl ether,"InChI=1S/C9H10O2/c1-2-4-8(5-3-1)10-6-9-7-11-9/h1-5,9H,6-7H2",FQYUMYWMJTYZTK-UHFFFAOYSA-N,C1OC1COc2ccccc2,-1.7964
717,B-718,hydrazobenzene,"InChI=1S/C12H12N2/c1-3-7-11(8-4-1)13-14-12-9-5-2-6-10-12/h1-10,13-14H",YBQZXXMEJHZYMB-UHFFFAOYSA-N,N(Nc1ccccc1)c2ccccc2,-2.9210000000000003
718,B-719,2-anilinoethanol,"InChI=1S/C8H11NO/c10-7-6-9-8-4-2-1-3-5-8/h1-5,9-10H,6-7H2",MWGATWIBSKHFMR-UHFFFAOYSA-N,OCCNc1ccccc1,-0.4745
719,B-720,3-(chloromethyl)heptane,"InChI=1S/C8H17Cl/c1-3-5-6-8(4-2)7-9/h8H,3-7H2,1-2H3",WLVCBAMXYMWGLJ-UHFFFAOYSA-N,CCCCC(CC)CCl,-3.1723
720,B-721,2-ethylhexanal,"InChI=1S/C8H16O/c1-3-5-6-8(4-2)7-9/h7-8H,3-6H2,1-2H3",LGYNIFWIKSEESD-UHFFFAOYSA-N,CCCCC(CC)C=O,-2.5059
721,B-722,2-methylpentaldehyde,"InChI=1S/C6H12O/c1-3-4-6(2)5-7/h5-6H,3-4H2,1-2H3",FTZILAQGHINQQR-UHFFFAOYSA-N,CCCC(C)C=O,-1.3774
722,B-723,di(n-propyl) ketone,"InChI=1S/C7H14O/c1-3-5-7(8)6-4-2/h3-6H2,1-2H3",HCFAJYNVAYBARA-UHFFFAOYSA-N,CCCC(=O)CCC,-1.5525
723,B-724,succinyl peroxide,"InChI=1S/C8H10O8/c9-5(10)1-3-7(13)15-16-8(14)4-2-6(11)12/h1-4H2,(H,9,10)(H,11,12)",MKTOIPPVFPJEQO-UHFFFAOYSA-N,OC(=O)CCC(=O)OOC(=O)CCC(O)=O,-0.8471
724,B-725,ethyl nonanoate,"InChI=1S/C11H22O2/c1-3-5-6-7-8-9-10-11(12)13-4-2/h3-10H2,1-2H3",BYEVBITUADOIGY-UHFFFAOYSA-N,CCCCCCCCC(=O)OCC,-3.8007
725,B-726,"3-methylene-7-methyl-1,6-octadiene  (myrcene)","InChI=1S/C10H16/c1-5-10(4)8-6-7-9(2)3/h5,7H,1,4,6,8H2,2-3H3",UAHWPYUMFXYFJY-UHFFFAOYSA-N,CC(C)=CCCC(=C)C=C,-4.3861
726,B-727,methylformamide,"InChI=1S/C2H5NO/c1-3-2-4/h2H,1H3,(H,3,4)",ATHHXGZTWNVVOU-UHFFFAOYSA-N,CNC=O,1.2286
727,B-728,4-hydroxy-4-methyl-2-pentanone,"InChI=1S/C6H12O2/c1-5(7)4-6(2,3)8/h8H,4H2,1-3H3",SWXVUIWOUIDPGS-UHFFFAOYSA-N,CC(=O)CC(C)(C)O,0.9349
728,B-729,succinimide,"InChI=1S/C4H5NO2/c6-3-1-2-4(7)5-3/h1-2H2,(H,5,6,7)",KZNICNPSHKQLFF-UHFFFAOYSA-N,O=C1CCC(=O)N1,0.2962
729,B-730,ethyl hexanoate,"InChI=1S/C8H16O2/c1-3-5-6-7-8(9)10-4-2/h3-7H2,1-2H3",SHZIWNPUGXLXDT-UHFFFAOYSA-N,CCCCCC(=O)OCC,-2.3607
730,B-731,dioctyl adipate,"InChI=1S/C22H42O4/c1-3-5-7-9-11-15-19-25-21(23)17-13-14-18-22(24)26-20-16-12-10-8-6-4-2/h3-20H2,1-2H3",NEHDRDVHPTWWFG-UHFFFAOYSA-N,CCCCCCCCOC(=O)CCCCC(=O)OCCCCCCCC,-5.6768
731,B-732,1-[(2-aminoethyl)amino]-2-propanol,"InChI=1S/C5H14N2O/c1-5(8)4-7-3-2-6/h5,7-8H,2-4,6H2,1H3",CWKVFRNCODQPDB-UHFFFAOYSA-N,CC(O)CNCCN,0.9275
732,B-733,"1,4-dioxane",InChI=1S/C4H8O2/c1-2-6-4-3-5-1/h1-4H2,RYHBNJHYFVUHQT-UHFFFAOYSA-N,C1COCCO1,1.055
733,B-734,isoamyl acetate,"InChI=1S/C7H14O2/c1-6(2)4-5-9-7(3)8/h6H,4-5H2,1-3H3",MLFHJEHSLIIPHL-UHFFFAOYSA-N,CC(C)CCOC(C)=O,-1.8135
734,B-735,"acetic acid, 2,2'-thiobis-","InChI=1S/C4H6O4S/c5-3(6)1-9-2-4(7)8/h1-2H2,(H,5,6)(H,7,8)",UVZICZIVKIMRNE-UHFFFAOYSA-N,OC(=O)CSCC(O)=O,0.4255
735,B-736,octanal,"InChI=1S/C8H16O/c1-2-3-4-5-6-7-8-9/h8H,2-7H2,1H3",NUJGJRNETVAIRJ-UHFFFAOYSA-N,CCCCCCCC=O,-2.3598
736,B-737,diethylene glycol monobutyl ether acetate,"InChI=1S/C10H20O4/c1-3-4-5-12-6-7-13-8-9-14-10(2)11/h3-9H2,1-2H3",VXQBJTKSVGFQOL-UHFFFAOYSA-N,CCCCOCCOCCOC(C)=O,-0.8188
737,B-738,n-decane,"InChI=1S/C10H22/c1-3-5-7-9-10-8-6-4-2/h3-10H2,1-2H3",DIOQZVSQGTUSAI-UHFFFAOYSA-N,CCCCCCCCCC,-6.4372
738,B-739,nonanal,"InChI=1S/C9H18O/c1-2-3-4-5-6-7-8-9-10/h9H,2-8H2,1H3",GYHFUZHODSMOHU-UHFFFAOYSA-N,CCCCCCCCC=O,-3.1708
739,B-740,n-dodecylamine,"InChI=1S/C12H27N/c1-2-3-4-5-6-7-8-9-10-11-12-13/h2-13H2,1H3",JRBPAEWTRLWTQC-UHFFFAOYSA-N,CCCCCCCCCCCCN,-3.3759
740,B-741,dibromochloromethane,InChI=1S/CHBr2Cl/c2-1(3)4/h1H,GATVIKZLVQHOMN-UHFFFAOYSA-N,ClC(Br)Br,-1.8873
741,B-742,methane arsonate,"InChI=1S/CH5AsO3/c1-2(3,4)5/h1H3,(H2,3,4,5)",QYPPRTNMGCREIM-UHFFFAOYSA-N,C[As](O)(O)=O,0.2622
742,B-743,tetrakis(hydroxymethyl)phosphonium chloride,"InChI=1S/C4H12O4P.ClH/c5-1-9(2-6,3-7)4-8;/h5-8H,1-4H2;1H/q+1;/p-1",AKXUUJCMWZFYMV-UHFFFAOYSA-M,[Cl-].OC[P+](CO)(CO)CO,0.322
743,B-744,2-amino-2-methyl-1-propanol,"InChI=1S/C4H11NO/c1-4(2,5)3-6/h6H,3,5H2,1-2H3",CBTVGIZVANVGBH-UHFFFAOYSA-N,CC(C)(N)CO,1.0499
744,B-745,"1,2-dibromotetrafluoroethane","InChI=1S/C2Br2F4/c3-1(5,6)2(4,7)8",KVBKAPANDHPRDG-UHFFFAOYSA-N,FC(F)(Br)C(F)(F)Br,-4.9376
745,B-746,camphoric acid,"InChI=1S/C10H16O4/c1-9(2)6(7(11)12)4-5-10(9,3)8(13)14/h6H,4-5H2,1-3H3,(H,11,12)(H,13,14)/p-2/t6-,10+/m1/s1",LSPHULWDVZXLIL-LDWIPMOCSA-L,CC1(C)[C@H](CC[C@@]1(C)C([O-])=O)C([O-])=O,-1.4207
747,B-748,"2-hydroxymethyl-2-nitro-1,3-propanediol","InChI=1S/C4H9NO5/c6-1-4(2-7,3-8)5(9)10/h6-8H,1-3H2",OLQJQHSAWMFDJE-UHFFFAOYSA-N,OCC(CO)(CO)[N+]([O-])=O,1.1631
748,B-749,sucrose octaacetate,"InChI=1S/C28H38O19/c1-12(29)37-9-20-22(40-15(4)32)24(42-17(6)34)25(43-18(7)35)27(45-20)47-28(11-39-14(3)31)26(44-19(8)36)23(41-16(5)33)21(46-28)10-38-13(2)30/h20-27H,9-11H2,1-8H3/t20-,21-,22-,23-,24+,25-,26+,27-,28+/m1/s1",ZIJKGAXBCRWEOL-SAXBRCJISA-N,CC(=O)OC[C@H]1O[C@H](O[C@]2(COC(C)=O)O[C@H](COC(C)=O)[C@@H](OC(C)=O)[C@@H]2OC(C)=O)[C@H](OC(C)=O)[C@@H](OC(C)=O)[C@@H]1OC(C)=O,-2.8726
749,B-750,"cyclohexanol, 1-ethynyl-, carbamate","InChI=1S/C9H13NO2/c1-2-9(12-8(10)11)6-4-3-5-7-9/h1H,3-7H2,(H2,10,11)",GXRZIMHKGDIBEW-UHFFFAOYSA-N,NC(=O)OC1(CCCCC1)C#C,-1.8253
750,B-751,dipentaerythritol,"InChI=1S/C10H22O7/c11-1-9(2-12,3-13)7-17-8-10(4-14,5-15)6-16/h11-16H,1-8H2",TXBCBTDQIULDIA-UHFFFAOYSA-N,OCC(CO)(CO)COCC(CO)(CO)CO,-1.9582
751,B-752,"tris(2,3-dibromopropyl) phosphate","InChI=1S/C9H15Br6O4P/c10-1-7(13)4-17-20(16,18-5-8(14)2-11)19-6-9(15)3-12/h7-9H,1-6H2",PQYJRMFWJJONBO-UHFFFAOYSA-N,BrCC(Br)CO[P](=O)(OCC(Br)CBr)OCC(Br)CBr,-4.9405