,ID,Name,InChI,InChIKey,SMILES,Solubility
870,B-871,"7h-dibenzo[c,h]phenothiazine","InChI=1S/C20H13NS/c1-3-7-15-13(5-1)9-11-17-19(15)22-20-16-8-4-2-6-14(16)10-12-18(20)21-17/h1-12,21H",PTOPHPNCDGAXGC-UHFFFAOYSA-N,N1c2ccc3ccccc3c2Sc4c1ccc5ccccc45,-6.8786
871,B-872,12h-benzo[c]phenothiazine,"InChI=1S/C16H11NS/c1-2-6-12-11(5-1)9-10-15-16(12)17-13-7-3-4-8-14(13)18-15/h1-10,17H",PGIGZWJIJSINOD-UHFFFAOYSA-N,N1c2ccccc2Sc3ccc4ccccc4c13,-5.8957
872,B-873,7h-benzo[c]phenothiazine,"InChI=1S/C16H11NS/c1-2-6-12-11(5-1)9-10-14-16(12)18-15-8-4-3-7-13(15)17-14/h1-10,17H",WUTNPRKQMZJXTR-UHFFFAOYSA-N,N1c2ccccc2Sc3c1ccc4ccccc34,-6.5727
873,B-874,"dibenz(a,h)acridine",InChI=1S/C21H13N/c1-3-7-17-14(5-1)11-12-20-19(17)13-16-10-9-15-6-2-4-8-18(15)21(16)22-20/h1-13H,JNCSIWAONQTVCF-UHFFFAOYSA-N,c1ccc2c(c1)ccc3nc4c(ccc5ccccc45)cc23,-6.2447
874,B-875,phenanthridine,InChI=1S/C13H9N/c1-2-6-11-10(5-1)9-14-13-8-4-3-7-12(11)13/h1-9H,RDOWQLZANAYVLL-UHFFFAOYSA-N,c1ccc2c(c1)cnc3ccccc23,-2.7763
875,B-876,"1h-1,2,3-triazolo[4,5-d]pyrimidine","InChI=1S/C4H3N5/c1-3-4(6-2-5-1)8-9-7-3/h1-2H,(H,5,6,7,8,9)",GIIGHSIIKVOWKZ-UHFFFAOYSA-N,[nH]1nc2cncnc2n1,-0.2319
876,B-877,"1,4-diazabicyclo(2,2,2)octane  (dabco)",InChI=1S/C6H12N2/c1-2-8-5-3-7(1)4-6-8/h1-6H2,IMNIMPAHZVJRPE-UHFFFAOYSA-N,C1CN2CCN1CC2,0.6033
877,B-878,pyrazole,"InChI=1S/C3H4N2/c1-2-4-5-3-1/h1-3H,(H,4,5)",WTKZEGDFNFYCGP-UHFFFAOYSA-N,[nH]1cccn1,-0.5452
878,B-879,iso-oxazole,InChI=1S/C3H3NO/c1-2-4-5-3-1/h1-3H,CTAPFRYPJLPFDF-UHFFFAOYSA-N,o1cccn1,0.3827
879,B-880,pyridazine,InChI=1S/C4H4N2/c1-2-4-6-5-3-1/h1-4H,PBMFSQRYOILNGV-UHFFFAOYSA-N,c1ccnnc1,1.0964
880,B-881,pyrimidine,InChI=1S/C4H4N2/c1-2-5-4-6-3-1/h1-4H,CZPWVGJYEJSRLH-UHFFFAOYSA-N,c1cncnc1,1.0964
881,B-882,cycloheptane,InChI=1S/C7H14/c1-2-4-6-7-5-3-1/h1-7H2,DMEGYFMYUHOHGS-UHFFFAOYSA-N,C1CCCCCC1,-3.5149
882,B-883,thionazin,"InChI=1S/C8H13N2O3PS/c1-3-11-14(15,12-4-2)13-8-7-9-5-6-10-8/h5-7H,3-4H2,1-2H3",IRVDMKJLOCGUBJ-UHFFFAOYSA-N,CCO[P](=S)(OCC)Oc1cnccn1,-2.338
883,B-884,phosphamidon,"InChI=1S/C10H19ClNO5P/c1-6-12(7-2)10(13)9(11)8(3)17-18(14,15-4)16-5/h6-7H2,1-5H3/b9-8+",RGCLLPNLLBQHPF-CMDGGOBGSA-N,CCN(CC)C(=O)/C(Cl)=C(/C)O[P](=O)(OC)OC,0.5233
884,B-885,mevinphos (trans),"InChI=1S/C7H13O6P/c1-6(5-7(8)10-2)13-14(9,11-3)12-4/h5H,1-4H3/b6-5+",GEPDYQSQVLXLEU-AATRIKPKSA-N,COC(=O)\C=C(/C)O[P](=O)(OC)OC,0.6495
885,B-886,demeton-o,"InChI=1S/C8H19O3PS2/c1-4-9-12(13,10-5-2)11-7-8-14-6-3/h4-8H2,1-3H3",DGLIBALSRMUQDD-UHFFFAOYSA-N,CCO[P](=S)(OCC)OCCSCC,-3.634
886,B-887,"1,2:3,4-diepoxybutane dl","InChI=1S/C4H6O2/c1-3(5-1)4-2-6-4/h3-4H,1-2H2",ZFIVKAOQEXOYFY-UHFFFAOYSA-N,C1OC1C2CO2,1.065
887,B-888,carbamazepine,"InChI=1S/C15H12N2O/c16-15(18)17-13-7-3-1-5-11(13)9-10-12-6-2-4-8-14(12)17/h1-10H,(H2,16,18)",FFGPTBGBLSHEPO-UHFFFAOYSA-N,NC(=O)N1c2ccccc2C=Cc3ccccc13,-3.3242
888,B-889,cinnarizine,"InChI=1S/C26H28N2/c1-4-11-23(12-5-1)13-10-18-27-19-21-28(22-20-27)26(24-14-6-2-7-15-24)25-16-8-3-9-17-25/h1-17,26H,18-22H2/b13-10+",DERZBLKQOCDDDZ-JLHYYAGUSA-N,C1CN(CCN1C\C=C\c2ccccc2)C(c3ccccc3)c4ccccc4,-2.6914
889,B-890,methoxsalen,"InChI=1S/C12H8O4/c1-14-12-10-8(4-5-15-10)6-7-2-3-9(13)16-11(7)12/h2-6H,1H3",QXKHYNVANLEOEG-UHFFFAOYSA-N,COc1c2occc2cc3C=CC(=O)Oc13,-3.6576
890,B-891,"l-tyrosine, 3,5-dibromo-","InChI=1S/C9H9Br2NO3/c10-5-1-4(2-6(11)8(5)13)3-7(12)9(14)15/h1-2,7,13H,3,12H2,(H,14,15)/t7-/m0/s1",COESHZUDRKCEPA-ZETCQYMHSA-N,N[C@@H](Cc1cc(Br)c(O)c(Br)c1)C(O)=O,-1.9281
891,B-892,"3,5-diiodo-l-tyrosine","InChI=1S/C9H9I2NO3/c10-5-1-4(2-6(11)8(5)13)3-7(12)9(14)15/h1-2,7,13H,3,12H2,(H,14,15)/t7-/m0/s1",NYPYHUZRZVSYKL-ZETCQYMHSA-N,N[C@@H](Cc1cc(I)c(O)c(I)c1)C(O)=O,-2.8441
892,B-893,oxydemeton methyl,"InChI=1S/C6H15O4PS2/c1-4-13(8)6-5-12-11(7,9-2)10-3/h4-6H2,1-3H3",PMCVMORKVPSKHZ-UHFFFAOYSA-N,CC[S](=O)CCS[P](=O)(OC)OC,0.6086
893,B-894,hydrazine,InChI=1S/H4N2/c1-2/h1-2H2,OAKJQQAXSVQMHS-UHFFFAOYSA-N,NN,1.4942
894,B-895,choral hydrate,"InChI=1S/C2H3Cl3O2/c3-2(4,5)1(6)7/h1,6-7H",RNFNDJAIBTYOQL-UHFFFAOYSA-N,OC(O)C(Cl)(Cl)Cl,0.6807
895,B-896,aconitine,"InChI=1S/C34H47NO11/c1-7-35-15-31(16-41-3)20(37)13-21(42-4)33-19-14-32(40)28(45-30(39)18-11-9-8-10-12-18)22(19)34(46-17(2)36,27(38)29(32)44-6)23(26(33)35)24(43-5)25(31)33/h8-12,19-29,37-38,40H,7,13-16H2,1-6H3/t19-,20-,21+,22-,23+,24+,25-,26?,27+,28-,29+,31+,32-,33+,34-/m1/s1",XFSBVAOIAHNAPC-XTHSEXKGSA-N,CCN1C[C@]2(COC)[C@H](O)C[C@H](OC)[C@@]34[C@@H]5C[C@]6(O)[C@@H](OC)[C@H](O)[C@](OC(C)=O)([C@@H]([C@H](OC)[C@H]23)C14)[C@H]5[C@H]6OC(=O)c7ccccc7,-3.3187
896,B-897,meparfynol carbamate,"InChI=1S/C7H11NO2/c1-4-7(3,5-2)10-6(8)9/h1H,5H2,2-3H3,(H2,8,9)",GXCDLJXPZVCHBX-UHFFFAOYSA-N,CCC(C)(OC(N)=O)C#C,-0.9456
897,B-898,alanine,"InChI=1S/C3H7NO2/c1-2(4)3(5)6/h2H,4H2,1H3,(H,5,6)",QNAYBMKLOCPYGJ-UHFFFAOYSA-N,CC(N)C(O)=O,0.2703
898,B-899,dl-serine,"InChI=1S/C3H7NO3/c4-2(1-5)3(6)7/h2,5H,1,4H2,(H,6,7)",MTCFGRXMJLQNBG-UHFFFAOYSA-N,NC(CO)C(O)=O,-0.4217
899,B-900,potassium sodium tartrate,"InChI=1S/C4H6O6.K.Na/c5-1(3(7)8)2(6)4(9)10;;/h1-2,5-6H,(H,7,8)(H,9,10);;/q;2*+1/p-2/t1-,2-;;/m1../s1",LJCNRYVRMXRIQR-OLXYHTOASA-L,[Na+].[K+].O[C@H]([C@@H](O)C([O-])=O)C([O-])=O,0.3984
900,B-901,"1,1,1-trifluoro-2,2-dichloroethane","InChI=1S/C2HCl2F3/c3-1(4)2(5,6)7/h1H",OHMHBGPWCHTMQE-UHFFFAOYSA-N,FC(F)(F)C(Cl)Cl,-1.8623
901,B-902,aldrin,"InChI=1S/C12H8Cl6/c13-8-9(14)11(16)7-5-2-1-4(3-5)6(7)10(8,15)12(11,17)18/h1-2,4-7H,3H2",QBYJBZPUGVGKQQ-UHFFFAOYSA-N,ClC1=C(Cl)C2(Cl)C3C4CC(C=C4)C3C1(Cl)C2(Cl)Cl,-7.3317
902,B-903,2-chlorovinyl diethyl phosphate,"InChI=1S/C6H12ClO4P/c1-3-9-12(8,10-4-2)11-6-5-7/h5-6H,3-4H2,1-2H3/b6-5+",DKMDOBOUUAGJNY-AATRIKPKSA-N,CCO[P](=O)(OCC)O\C=C\Cl,-1.3316
903,B-904,d-serine,"InChI=1S/C3H7NO3/c4-2(1-5)3(6)7/h2,5H,1,4H2,(H,6,7)",MTCFGRXMJLQNBG-UHFFFAOYSA-N,NC(CO)C(O)=O,0.5395
904,B-905,bromacil,"InChI=1S/C9H13BrN2O2/c1-4-5(2)12-8(13)7(10)6(3)11-9(12)14/h5H,4H2,1-3H3,(H,11,14)",CTSLUCNDVMMDHG-UHFFFAOYSA-N,CCC(C)N1C(=O)NC(=C(Br)C1=O)C,-2.5057
905,B-906,isocil,"InChI=1S/C8H11BrN2O2/c1-4(2)11-7(12)6(9)5(3)10-8(11)13/h4H,1-3H3,(H,10,13)",PSYBGEADHLUXCS-UHFFFAOYSA-N,CC(C)N1C(=O)NC(=C(Br)C1=O)C,-2.0604
906,B-907,mexacarbate,"InChI=1S/C12H18N2O2/c1-8-6-10(16-12(15)13-3)7-9(2)11(8)14(4)5/h6-7H,1-5H3,(H,13,15)",YNEVBPNZHBAYOA-UHFFFAOYSA-N,CNC(=O)Oc1cc(C)c(N(C)C)c(C)c1,-3.3469
907,B-908,isoleucine,"InChI=1S/C6H13NO2/c1-3-4(2)5(7)6(8)9/h4-5H,3,7H2,1-2H3,(H,8,9)",AGPKZVBTJJNPAG-UHFFFAOYSA-N,CCC(C)C(N)C(O)=O,-0.5033
908,B-909,5-chlorosalicylic acid,"InChI=1S/C7H5ClO3/c8-4-1-2-6(9)5(3-4)7(10)11/h1-3,9H,(H,10,11)",NKBASRXWGAGQDP-UHFFFAOYSA-N,OC(=O)c1cc(Cl)ccc1O,-1.237
909,B-910,1-fluoronaphthalene,InChI=1S/C10H7F/c11-10-7-3-5-8-4-1-2-6-9(8)10/h1-7H,CWLKTJOTWITYSI-UHFFFAOYSA-N,Fc1cccc2ccccc12,-3.4527
910,B-911,"acetamide, n-(4-fluoro-2-methylphenyl)-","InChI=1S/C9H10FNO/c1-6-5-8(10)3-4-9(6)11-7(2)12/h3-5H,1-2H3,(H,11,12)",RJKWSTDTEPBWBJ-UHFFFAOYSA-N,CC(=O)Nc1ccc(F)cc1C,-1.3593
911,B-912,"acetamide, n-(2-fluoro-4-methylphenyl)-","InChI=1S/C9H10FNO/c1-6-3-4-9(8(10)5-6)11-7(2)12/h3-5H,1-2H3,(H,11,12)",WHXUSWHUWNRNHT-UHFFFAOYSA-N,CC(=O)Nc1ccc(C)cc1F,-1.7403
912,B-913,"1,2,4,5-tetrafluorobenzene",InChI=1S/C6H2F4/c7-3-1-4(8)6(10)2-5(3)9/h1-2H,SDXUIOOHCIQXRP-UHFFFAOYSA-N,Fc1cc(F)c(F)cc1F,-2.3757
913,B-914,a-aminocaproic acid,"InChI=1S/C6H13NO2/c1-2-3-4-5(7)6(8)9/h5H,2-4,7H2,1H3,(H,8,9)/t5-/m0/s1",LRQKBLKVPFOOQJ-YFKPBYRVSA-N,CCCC[C@H](N)C(O)=O,-1.0387
914,B-915,chlorogenic acid,"InChI=1S/C16H18O9/c17-9-3-1-8(5-10(9)18)2-4-13(20)25-12-7-16(24,15(22)23)6-11(19)14(12)21/h1-5,11-12,14,17-19,21,24H,6-7H2,(H,22,23)/b4-2+/t11-,12-,14-,16+/m1/s1",CWVRJTMFETXNAD-JUHZACGLSA-N,O[C@@H]1C[C@](O)(C[C@@H](OC(=O)\C=C\c2ccc(O)c(O)c2)[C@@H]1O)C(O)=O,-0.9473
915,B-916,leucine,"InChI=1S/C6H13NO2/c1-4(2)3-5(7)6(8)9/h4-5H,3,7H2,1-2H3,(H,8,9)",ROHFNLRQFUQHCH-UHFFFAOYSA-N,CC(C)CC(N)C(O)=O,-1.0456
916,B-917,cyclohexyl methylphosphonofluoridate,"InChI=1S/C7H14FO2P/c1-11(8,9)10-7-5-3-2-4-6-7/h7H,2-6H2,1H3",SNTRKUOVAPUGAY-UHFFFAOYSA-N,C[P](F)(=O)OC1CCCCC1,-1.6875
917,B-918,d-alanine,"InChI=1S/C3H7NO2/c1-2(4)3(5)6/h2H,4H2,1H3,(H,5,6)",QNAYBMKLOCPYGJ-UHFFFAOYSA-N,CC(N)C(O)=O,0.2674
918,B-919,o-fluorobenzyl chloride,"InChI=1S/C7H6ClF/c8-5-6-3-1-2-4-7(6)9/h1-4H,5H2",MOBRMRJUKNQBMY-UHFFFAOYSA-N,Fc1ccccc1CCl,-2.541
919,B-920,1-chloro-2-fluorobenzene,InChI=1S/C6H4ClF/c7-5-3-1-2-4-6(5)8/h1-4H,ZCJAYDKWZAWMPR-UHFFFAOYSA-N,Fc1ccccc1Cl,-2.4157
920,B-921,"benzene, 1-fluoro-4-iodo-",InChI=1S/C6H4FI/c7-5-1-3-6(8)4-2-5/h1-4H,KGNQDBQYEBMPFZ-UHFFFAOYSA-N,Fc1ccc(I)cc1,-3.1257
921,B-922,diethylsulfide,"InChI=1S/C4H10S/c1-3-5-4-2/h3-4H2,1-2H3",LJSQFQKUNVCTIA-UHFFFAOYSA-N,CCSCC,-1.4596
922,B-923,fluoroethane,"InChI=1S/C2H5F/c1-2-3/h2H2,1H3",UHCBBWUQDAVSMS-UHFFFAOYSA-N,CCF,-1.3477
923,B-924,"1,2-difluorobenzene",InChI=1S/C6H4F2/c7-5-3-1-2-4-6(5)8/h1-4H,GOYDNIKZWGIXJT-UHFFFAOYSA-N,Fc1ccccc1F,-1.0004
924,B-925,"l-histidine, 3-methyl-","InChI=1S/C7H11N3O2/c1-10-4-9-3-5(10)2-6(8)7(11)12/h3-4,6H,2,8H2,1H3,(H,11,12)/t6-/m0/s1",JDHILDINMRGULE-LURJTMIESA-N,Cn1cncc1C[C@H](N)C(O)=O,0.0727
925,B-926,benzenediazonium hexafluophosphate (1-),"InChI=1S/C6H5N2.F6P/c7-8-6-4-2-1-3-5-6;1-7(2,3,4,5)6/h1-5H;/q+1;-1",GIDPFONPWSEBOB-UHFFFAOYSA-N,F[P-](F)(F)(F)(F)F.N#[N+]c1ccccc1,-1.4438
926,B-927,2-fluoroethanol,"InChI=1S/C2H5FO/c3-1-2-4/h4H,1-2H2",GGDYAKVUZMZKRV-UHFFFAOYSA-N,OCCF,1.1934
927,B-928,isopestox,"InChI=1S/C6H16FN2OP/c1-5(2)8-11(7,10)9-6(3)4/h5-6H,1-4H3,(H2,8,9,10)",UOSHUBFBCPGQAY-UHFFFAOYSA-N,CC(C)N[P](F)(=O)NC(C)C,-0.3574
928,B-929,"butanoic acid, 4,4,4-trifluoro-3-oxo-, ethyl est","InChI=1S/C6H7F3O3/c1-2-12-5(11)3-4(10)6(7,8)9/h2-3H2,1H3",OCJKUQIPRNZDTK-UHFFFAOYSA-N,CCOC(=O)CC(=O)C(F)(F)F,-1.3619999999999999
929,B-930,"1,1,1-trifluoro-2-propanol","InChI=1S/C3H5F3O/c1-2(7)3(4,5)6/h2,7H,1H3",GILIYJDBJZWGBG-UHFFFAOYSA-N,CC(O)C(F)(F)F,0.3094
930,B-931,"1,1-dichloro-1,2,2,2-tetrafluoroethane","InChI=1S/C2Cl2F4/c3-1(4,5)2(6,7)8",BAMUEXIPKSRTBS-UHFFFAOYSA-N,FC(F)(F)C(F)(Cl)Cl,-3.0961
931,B-932,"acetic acid, difluoro-","InChI=1S/C2H2F2O2/c3-1(4)2(5)6/h1H,(H,5,6)",PBWZKZYHONABLN-UHFFFAOYSA-N,OC(=O)C(F)F,1.0176
932,B-933,andrenosterone,"InChI=1S/C19H24O3/c1-18-8-7-12(20)9-11(18)3-4-13-14-5-6-16(22)19(14,2)10-15(21)17(13)18/h9,13-14,17H,3-8,10H2,1-2H3/t13-,14-,17+,18-,19-/m0/s1",RZRPTBIGEANTGU-IRIMSJTPSA-N,C[C@]12CC(=O)[C@H]3[C@@H](CCC4=CC(=O)CC[C@]34C)[C@@H]1CCC2=O,-3.4843
933,B-934,nalidixic acid,"InChI=1S/C12H12N2O3/c1-3-14-6-9(12(16)17)10(15)8-5-4-7(2)13-11(8)14/h4-6H,3H2,1-2H3,(H,16,17)",MHWLWQUZZRMNGJ-UHFFFAOYSA-N,CCN1C=C(C(O)=O)C(=O)c2ccc(C)nc12,-3.3659
934,B-935,4-fluoro-2-propyl-phenol,"InChI=1S/C9H11FO/c1-2-3-7-6-8(10)4-5-9(7)11/h4-6,11H,2-3H2,1H3",BQWYJUVFIXTFHH-UHFFFAOYSA-N,CCCc1cc(F)ccc1O,-1.8869999999999998
935,B-936,nidroxyzone,"InChI=1S/C8H10N4O5/c9-8(14)11(3-4-13)10-5-6-1-2-7(17-6)12(15)16/h1-2,5,13H,3-4H2,(H2,9,14)/b10-5+",FJVAAURIDNIYAE-BJMVGYQFSA-N,NC(=O)N(CCO)/N=C/c1oc(cc1)[N+]([O-])=O,-2.6852
936,B-937,cyanamide,InChI=1S/CH2N2/c2-1-3/h2H2,XZMCDFZZKTWFGF-UHFFFAOYSA-N,NC#N,1.0753
937,B-938,"benzoic acid, 2-(trifluoromethyl)-","InChI=1S/C8H5F3O2/c9-8(10,11)6-4-2-1-3-5(6)7(12)13/h1-4H,(H,12,13)",FBRJYBGLCHWYOE-UHFFFAOYSA-N,OC(=O)c1ccccc1C(F)(F)F,-1.5978
938,B-939,ethisterone,"InChI=1S/C21H28O2/c1-4-21(23)12-9-18-16-6-5-14-13-15(22)7-10-19(14,2)17(16)8-11-20(18,21)3/h1,13,16-18,23H,5-12H2,2-3H3/t16-,17+,18+,19+,20+,21+/m1/s1",CHNXZKVNWQUJIB-CEGNMAFCSA-N,C[C@]12CCC(=O)C=C1CC[C@@H]3[C@@H]2CC[C@@]4(C)[C@H]3CC[C@@]4(O)C#C,-5.6576
939,B-940,lithocholic acid,"InChI=1S/C24H40O3/c1-15(4-9-22(26)27)19-7-8-20-18-6-5-16-14-17(25)10-12-23(16,2)21(18)11-13-24(19,20)3/h15-21,25H,4-14H2,1-3H3,(H,26,27)/t15-,16-,17-,18+,19-,20+,21+,23+,24-/m1/s1",SMEROWZSTRWXGI-HVATVPOCSA-N,C[C@H](CCC(O)=O)[C@H]1CC[C@H]2[C@@H]3CC[C@@H]4C[C@H](O)CC[C@]4(C)[C@H]3CC[C@]12C,-6.0
940,B-941,nandrolone,"InChI=1S/C18H26O2/c1-18-9-8-14-13-5-3-12(19)10-11(13)2-4-15(14)16(18)6-7-17(18)20/h10,13-17,20H,2-9H2,1H3/t13-,14+,15+,16-,17-,18-/m0/s1",NPAGDVCDWIYMMC-IZPLOLCNSA-N,C[C@]12CC[C@H]3[C@@H](CCC4=CC(=O)CC[C@H]34)[C@@H]1CC[C@@H]2O,-1.9484
941,B-942,"azuleno[6,5-b]furan-2,6-(3h,4h)-dione, 3a,7,7a,8","InChI=1S/C15H20O4/c1-6-4-11-13(8(3)15(18)19-11)14(17)12-7(2)10(16)5-9(6)12/h6,8-9,11,13-14,17H,4-5H2,1-3H3/t6-,8-,9+,11+,13+,14+/m0/s1",BFWXQSLJSDLIAA-GSGOXJSYSA-N,C[C@H]1C[C@H]2OC(=O)[C@@H](C)[C@H]2[C@H](O)C3=C(C)C(=O)C[C@H]13,-1.945
942,B-943,fentanyl,"InChI=1S/C22H28N2O/c1-2-22(25)24(20-11-7-4-8-12-20)21-14-17-23(18-15-21)16-13-19-9-5-3-6-10-19/h3-12,21H,2,13-18H2,1H3",PJMPHNIQZUBGLI-UHFFFAOYSA-N,CCC(=O)N(C1CCN(CC1)CCc2ccccc2)c3ccccc3,-3.2259
943,B-944,iodamide,"InChI=1S/C12H11I3N2O4/c1-4(18)16-3-6-8(13)7(12(20)21)10(15)11(9(6)14)17-5(2)19/h3H2,1-2H3,(H,16,18)(H,17,19)(H,20,21)",VVDGWALACJEJKG-UHFFFAOYSA-N,CC(=O)NCc1c(I)c(NC(C)=O)c(I)c(C(O)=O)c1I,-2.3208
944,B-945,dl-isoleucine,"InChI=1S/C6H13NO2/c1-3-4(2)5(7)6(8)9/h4-5H,3,7H2,1-2H3,(H,8,9)/t4-,5+/m0/s1",AGPKZVBTJJNPAG-CRCLSJGQSA-N,CC[C@H](C)[C@@H](N)C(O)=O,-0.7875
945,B-946,"benzeneacetic acid, 2,5-dihydroxy-","InChI=1S/C8H8O4/c9-6-1-2-7(10)5(3-6)4-8(11)12/h1-3,9-10H,4H2,(H,11,12)",IGMNYECMUMZDDF-UHFFFAOYSA-N,OC(=O)Cc1cc(O)ccc1O,0.7037
946,B-947,1h-purin-2-amine,"InChI=1S/C5H5N5/c6-5-7-1-3-4(10-5)9-2-8-3/h1-2H,(H3,6,7,8,9,10)",MWBWWFOAEOYUST-UHFFFAOYSA-N,Nc1ncc2[nH]cnc2n1,-1.21
947,B-948,"3-furanol, tetrahydro-","InChI=1S/C4H8O2/c5-4-1-2-6-3-4/h4-5H,1-3H2",XDPCNPCKDGQBAN-UHFFFAOYSA-N,OC1CCOC1,1.055
948,B-949,"benzoic acid, 4-fluoro-3-nitro-","InChI=1S/C7H4FNO4/c8-5-2-1-4(7(10)11)3-6(5)9(12)13/h1-3H,(H,10,11)",BOJWTAQWPVBIPG-UHFFFAOYSA-N,OC(=O)c1ccc(F)c(c1)[N+]([O-])=O,-1.5809
949,B-950,m-fluorobenzyl chloride,"InChI=1S/C7H6ClF/c8-5-6-2-1-3-7(9)4-6/h1-4H,5H2",XBDXMDVEZLOGMC-UHFFFAOYSA-N,Fc1cccc(CCl)c1,-2.5436
950,B-951,2-propylpiperidine,"InChI=1S/C8H17N/c1-2-5-8-6-3-4-7-9-8/h8-9H,2-7H2,1H3/t8-/m0/s1",NDNUANOUGZGEPO-QMMMGPOBSA-N,CCC[C@H]1CCCCN1,-0.8493
951,B-952,"ethane, 1,1-difluoro-2-methoxy-","InChI=1S/C3H6F2O/c1-6-2-3(4)5/h3H,2H2,1H3",CRGZRXUKXVTRNO-UHFFFAOYSA-N,COCC(F)F,-0.2836
952,B-953,2-cyanoguanidine,"InChI=1S/C2H4N4/c3-1-6-2(4)5/h(H4,4,5,6)",QGBSISYHAICWAH-UHFFFAOYSA-N,NC(N)=NC#N,-0.3087
953,B-954,3-aminopyridine,"InChI=1S/C5H6N2/c6-5-2-1-3-7-4-5/h1-4H,6H2",CUYKNJBYIJFRCU-UHFFFAOYSA-N,Nc1cccnc1,1.0263
954,B-955,n-(aminocarbonyl)glycine,"InChI=1S/C3H6N2O3/c4-3(8)5-1-2(6)7/h1H2,(H,6,7)(H3,4,5,8)",KZVRXPPUJQRGFN-UHFFFAOYSA-N,NC(=O)NCC(O)=O,-0.5809
955,B-956,".beta.-alanine, n-(aminocarbonyl)-","InChI=1S/C4H8N2O3/c5-4(9)6-2-1-3(7)8/h1-2H2,(H,7,8)(H3,5,6,9)",JSJWCHRYRHKBBW-UHFFFAOYSA-N,NC(=O)NCCC(O)=O,-0.8014
956,B-957,d-borneol,"InChI=1S/C10H18O/c1-9(2)7-4-5-10(9,3)8(11)6-7/h7-8,11H,4-6H2,1-3H3/t7?,8-,10?/m0/s1",DTGKSKDOIYIVQL-ZCUBBSJVSA-N,CC1(C)C2CCC1(C)[C@@H](O)C2,-2.319
957,B-958,"(1r,4r)-(+)-camphor","InChI=1S/C10H16O/c1-9(2)7-4-5-10(9,3)8(11)6-7/h7H,4-6H2,1-3H3/t7-,10-/m0/s1",DSSYKIVIOFKYAU-XVKPBYJWSA-N,CC1(C)[C@H]2CC[C@@]1(C)C(=O)C2,-3.1825
958,B-959,quinamine,"InChI=1S/C19H24N2O2/c1-2-13-12-21-9-7-14(13)11-17(21)19-18(22,8-10-23-19)15-5-3-4-6-16(15)20-19/h2-6,13-14,17,20,22H,1,7-12H2/t13-,14-,17-,18+,19-/m0/s1",ALNKTVLUDWIWIH-HLQCWHFUSA-N,O[C@@]12CCO[C@@]1(Nc3ccccc23)[C@@H]4C[C@@H]5CCN4C[C@@H]5C=C,-2.6706
959,B-960,aspidospermine,"InChI=1S/C22H30N2O2/c1-4-21-10-6-13-23-14-12-22(20(21)23)16-7-5-8-17(26-3)19(16)24(15(2)25)18(22)9-11-21/h5,7-8,18,20H,4,6,9-14H2,1-3H3/t18-,20-,21-,22-/m1/s1",ARQOGCYMPUOVHK-ZHHKINOHSA-N,CC[C@@]12CCCN3CC[C@@]4([C@@H](CC1)N(C(C)=O)c5c(OC)cccc45)[C@@H]23,-1.3269
960,B-961,flurenol,"InChI=1S/C14H10O3/c15-13(16)14(17)11-7-3-1-5-9(11)10-6-2-4-8-12(10)14/h1-8,17H,(H,15,16)",GXAMYUGOODKVRM-UHFFFAOYSA-N,OC(=O)[C@@]1(O)c2ccccc2c3ccccc13,-1.9657
961,B-962,propoxyphene,"InChI=1S/C22H29NO2/c1-5-21(24)25-22(18(2)17-23(3)4,20-14-10-7-11-15-20)16-19-12-8-6-9-13-19/h6-15,18H,5,16-17H2,1-4H3/t18-,22+/m1/s1",XLMALTXPSGQGBX-GCJKJVERSA-N,CCC(=O)O[C@@](Cc1ccccc1)([C@H](C)CN(C)C)c2ccccc2,-5.0097
962,B-963,"1,8-cineole","InChI=1S/C10H18O/c1-9(2)8-4-6-10(3,11-9)7-5-8/h8H,4-7H2,1-3H3",WEEGYLXZBRQIMU-UHFFFAOYSA-N,CC12CCC(CC1)C(C)(C)O2,-1.6442
963,B-964,"1,1'-sulfonylbis(2-chloroethane)","InChI=1S/C4H8Cl2O2S/c5-1-3-9(7,8)4-2-6/h1-4H2",LUYAMNYBNTVQJG-UHFFFAOYSA-N,ClCC[S](=O)(=O)CCCl,-1.5031
964,B-965,methylguanidine,"InChI=1S/C2H7N3/c1-5-2(3)4/h1H3,(H4,3,4,5)",CHJJGSNFBQVOTG-UHFFFAOYSA-N,CN=C(N)N,-1.6135
965,B-966,thiazolsulfone,"InChI=1S/C9H9N3O2S2/c10-6-1-3-7(4-2-6)16(13,14)8-5-12-9(11)15-8/h1-5H,10H2,(H2,11,12)",KVEZIRCKNOTGKY-UHFFFAOYSA-N,Nc1ccc(cc1)[S](=O)(=O)c2sc(N)nc2,-2.805
966,B-967,"benzenesulfonamide, n,n-dichloro-4-methyl-","InChI=1S/C7H7Cl2NO2S/c1-6-2-4-7(5-3-6)13(11,12)10(8)9/h2-5H,1H3",ARGDYOIRHYLIMT-UHFFFAOYSA-N,Cc1ccc(cc1)[S](=O)(=O)N(Cl)Cl,-3.466
967,B-968,"cyclobutaneacetic acid, 3-acetyl-2,2-dimethyl-","InChI=1S/C10H16O3/c1-6(11)8-4-7(5-9(12)13)10(8,2)3/h7-8H,4-5H2,1-3H3,(H,12,13)",SIZDUQQDBXJXLQ-UHFFFAOYSA-N,CC(=O)C1CC(CC(O)=O)C1(C)C,-0.5752
968,B-969,chenodeoxycholic acid,"InChI=1S/C24H40O4/c1-14(4-7-21(27)28)17-5-6-18-22-19(9-11-24(17,18)3)23(2)10-8-16(25)12-15(23)13-20(22)26/h14-20,22,25-26H,4-13H2,1-3H3,(H,27,28)/t14-,15+,16-,17-,18+,19+,20-,22+,23+,24-/m1/s1",RUDATBOHQWOJDD-BSWAIDMHSA-N,C[C@H](CCC(O)=O)[C@H]1CC[C@H]2[C@@H]3[C@H](O)C[C@@H]4C[C@H](O)CC[C@]4(C)[C@H]3CC[C@]12C,-3.6402
969,B-970,equilin,"InChI=1S/C18H20O2/c1-18-9-8-14-13-5-3-12(19)10-11(13)2-4-15(14)16(18)6-7-17(18)20/h3-5,10,14,16,19H,2,6-9H2,1H3/t14-,16+,18+/m1/s1",WKRLQDKEXYKHJB-HFTRVMKXSA-N,C[C@]12CC[C@H]3C(=CCc4cc(O)ccc34)[C@@H]1CCC2=O,-5.2795
970,B-971,hematein,"InChI=1S/C16H12O6/c17-10-2-1-8-13-9-4-12(19)11(18)3-7(9)5-16(13,21)6-22-15(8)14(10)20/h1-4,17,19-21H,5-6H2",HLUCICHZHWJHLL-UHFFFAOYSA-N,Oc1ccc2c(OCC3(O)CC4=CC(=O)C(=CC4=C23)O)c1O,-2.6994
971,B-972,glycocholic acid,"InChI=1S/C26H43NO6/c1-14(4-7-22(31)27-13-23(32)33)17-5-6-18-24-19(12-21(30)26(17,18)3)25(2)9-8-16(28)10-15(25)11-20(24)29/h14-21,24,28-30H,4-13H2,1-3H3,(H,27,31)(H,32,33)/t14-,15+,16-,17-,18+,19+,20-,21+,24+,25+,26-/m1/s1",RFDAIACWWDREDC-FRVQLJSFSA-N,C[C@H](CCC(=O)NCC(O)=O)[C@H]1CC[C@H]2[C@@H]3[C@H](O)C[C@@H]4C[C@H](O)CC[C@]4(C)[C@H]3C[C@H](O)[C@]12C,-5.1495
972,B-973,picropodophyllin,"InChI=1S/C22H22O8/c1-25-16-4-10(5-17(26-2)21(16)27-3)18-11-6-14-15(30-9-29-14)7-12(11)20(23)13-8-28-22(24)19(13)18/h4-7,13,18-20,23H,8-9H2,1-3H3/t13-,18+,19+,20-/m0/s1",YJGVMLPVUAXIQN-HAEOHBJNSA-N,COc1cc(cc(OC)c1OC)[C@H]2[C@H]3[C@H](COC3=O)[C@@H](O)c4cc5OCOc5cc24,-3.6174
973,B-974,safranine t,"InChI=1S/C20H18N4.ClH/c1-12-10-17-19(11-16(12)22)24(14-6-4-3-5-7-14)18-9-8-15(21)13(2)20(18)23-17;/h3-11,22H,21H2,1-2H3;1H",QRYAEWIQIBAZOJ-UHFFFAOYSA-N,[Cl-].Cc1cc2nc3c(C)c(N)ccc3[n+](c4ccccc4)c2cc1N,-0.8462
974,B-975,dyphylline,"InChI=1S/C10H14N4O4/c1-12-8-7(9(17)13(2)10(12)18)14(5-11-8)3-6(16)4-15/h5-6,15-16H,3-4H2,1-2H3",KSCFJBIXMNOVSH-UHFFFAOYSA-N,CN1C(=O)N(C)c2ncn(CC(O)CO)c2C1=O,0.1172
975,B-976,cholanthrene,"InChI=1S/C20H14/c1-2-7-16-13(4-1)8-10-17-18-11-9-14-5-3-6-15(20(14)18)12-19(16)17/h1-8,10,12H,9,11H2",KVFJBIQWENJTDM-UHFFFAOYSA-N,C1Cc2c3ccc4ccccc4c3cc5cccc1c25,-7.8613
976,B-977,"1,8-naphthalenediamine","InChI=1S/C10H10N2/c11-8-5-1-3-7-4-2-6-9(12)10(7)8/h1-6H,11-12H2",YFOOEYJGMMJJLS-UHFFFAOYSA-N,Nc1cccc2cccc(N)c12,-2.2698
977,B-978,tetryl,"InChI=1S/C7H5N5O8/c1-8(12(19)20)7-5(10(15)16)2-4(9(13)14)3-6(7)11(17)18/h2-3H,1H3",AGUIVNYEYSCPNI-UHFFFAOYSA-N,CN(c1c(cc(cc1[N+]([O-])=O)[N+]([O-])=O)[N+]([O-])=O)[N+]([O-])=O,-3.5889
978,B-979,aucubin,"InChI=1S/C15H22O9/c16-4-6-3-8(18)7-1-2-22-14(10(6)7)24-15-13(21)12(20)11(19)9(5-17)23-15/h1-3,7-21H,4-5H2/t7-,8+,9+,10+,11+,12-,13+,14-,15-/m0/s1",RJWJHRPNHPHBRN-FKVJWERZSA-N,OC[C@H]1O[C@@H](O[C@@H]2OC=C[C@H]3[C@H](O)C=C(CO)[C@@H]23)[C@H](O)[C@@H](O)[C@@H]1O,0.0119
979,B-980,morin,"InChI=1S/C15H10O7/c16-6-1-2-8(9(18)3-6)15-14(21)13(20)12-10(19)4-7(17)5-11(12)22-15/h1-5,16-19,21H",YXOLAZRVSSWPPT-UHFFFAOYSA-N,Oc1ccc(c(O)c1)C2=C(O)C(=O)c3c(O)cc(O)cc3O2,-3.0824
980,B-981,"2,4,6-trimethylbenzoic acid","InChI=1S/C10H12O2/c1-6-4-7(2)9(10(11)12)8(3)5-6/h4-5H,1-3H3,(H,11,12)",FFFIRKXTFQCCKJ-UHFFFAOYSA-N,Cc1cc(C)c(c(C)c1)C(O)=O,-2.3566
981,B-982,"benzoic acid, 2,6-dihydroxy-4-methyl-","InChI=1S/C8H8O4/c1-4-2-5(9)7(8(11)12)6(10)3-4/h2-3,9-10H,1H3,(H,11,12)",YBZAVRDNSPUMFK-UHFFFAOYSA-N,Cc1cc(O)c(C(O)=O)c(O)c1,-2.0496