,ID,Name,InChI,InChIKey,SMILES,Solubility
3177,B-3178,"cyclopropanecarboxylic acid, 3-(2,2-dichloroethe","InChI=1S/C22H19Cl2NO3/c1-22(2)17(12-19(23)24)20(22)21(26)28-18(13-25)14-7-6-10-16(11-14)27-15-8-4-3-5-9-15/h3-12,17-18,20H,1-2H3",KAATUXNTWXVJKI-UHFFFAOYSA-N,CC1(C)C(C=C(Cl)Cl)C1C(=O)OC(C#N)c2cccc(Oc3ccccc3)c2,-6.5587
3178,B-3179,"propanediamide, 2-(hydroxyimino)-","InChI=1S/C3H5N3O3/c4-2(7)1(6-9)3(5)8/h9H,(H2,4,7)(H2,5,8)",NIGAUKVBFJZEHV-UHFFFAOYSA-N,NC(=O)C(=NO)C(N)=O,-0.0384
3179,B-3180,"2-propenoic acid, 2,3,3-tribromo-","InChI=1S/C3HBr3O2/c4-1(2(5)6)3(7)8/h(H,7,8)",UKFXMSBXHCEXIK-UHFFFAOYSA-N,OC(=O)C(Br)=C(Br)Br,-1.3593
3180,B-3181,"2-propenoic acid, 2,3-dibromo-3-iodo-","InChI=1S/C3HBr2IO2/c4-1(2(5)6)3(7)8/h(H,7,8)",AORLFLUMZXGBEY-UHFFFAOYSA-N,OC(=O)C(Br)=C(Br)I,-1.0197
3181,B-3182,"ethanesulfonamide, n-(ethylsulfonyl)-","InChI=1S/C4H11NO4S2/c1-3-10(6,7)5-11(8,9)4-2/h5H,3-4H2,1-2H3",IPVBROHEYXPTBX-UHFFFAOYSA-N,CC[S](=O)(=O)N[S](=O)(=O)CC,0.5413
3182,B-3183,chlozolinate,"InChI=1S/C13H11Cl2NO5/c1-3-20-11(18)13(2)10(17)16(12(19)21-13)9-5-7(14)4-8(15)6-9/h4-6H,3H2,1-2H3",IGUYEXXAGBDLLX-UHFFFAOYSA-N,CCOC(=O)C1(C)OC(=O)N(C1=O)c2cc(Cl)cc(Cl)c2,-4.0162
3183,B-3184,triazoxide,InChI=1S/C10H6ClN5O/c11-7-1-2-8-9(5-7)16(17)14-10(13-8)15-4-3-12-6-15/h1-6H,IQGKIPDJXCAMSM-UHFFFAOYSA-N,[O-][n+]1nc(nc2ccc(Cl)cc12)n3ccnc3,-3.8624
3184,B-3185,fenoxycarb,"InChI=1S/C17H19NO4/c1-2-20-17(19)18-12-13-21-14-8-10-16(11-9-14)22-15-6-4-3-5-7-15/h3-11H,2,12-13H2,1H3,(H,18,19)",HJUFTIJOISQSKQ-UHFFFAOYSA-N,CCOC(=O)NCCOc1ccc(Oc2ccccc2)cc1,-4.7009
3185,B-3186,azo dye n5,"InChI=1S/C23H24N6O4/c1-4-5-8-28(9-10-33-17(3)30)20-6-7-22(16(2)11-20)26-27-23-18(14-24)12-21(29(31)32)13-19(23)15-25/h6-7,11-13H,4-5,8-10H2,1-3H3",ARSKJXYLLONUAJ-UHFFFAOYSA-N,CCCCN(CCOC(C)=O)c1ccc(N=Nc2c(cc(cc2C#N)[N+]([O-])=O)C#N)c(C)c1,-8.8809
3186,B-3187,flurazole,"InChI=1S/C12H7ClF3NO2S/c13-11-17-9(12(14,15)16)8(20-11)10(18)19-6-7-4-2-1-3-5-7/h1-5H,6H2",MKQSWTQPLLCSOB-UHFFFAOYSA-N,FC(F)(F)c1nc(Cl)sc1C(=O)OCc2ccccc2,-5.8085
3187,B-3188,"1,2-benzenediol, 4-(1-propenyl)-","InChI=1S/C9H10O2/c1-2-3-7-4-5-8(10)9(11)6-7/h2-6,10-11H,1H3",MDXYNRAMDATLBT-UHFFFAOYSA-N,CC=Cc1ccc(O)c(O)c1,-1.3505
3188,B-3189,imiprothrin,"InChI=1S/C17H22N2O4/c1-6-7-18-9-13(20)19(16(18)22)10-23-15(21)14-12(8-11(2)3)17(14,4)5/h1,8,12,14H,7,9-10H2,2-5H3",VPRAQYXPZIFIOH-UHFFFAOYSA-N,CC(C)=CC1C(C(=O)OCN2C(=O)CN(CC#C)C2=O)C1(C)C,-3.5321
3189,B-3190,mefenacet,"InChI=1S/C16H14N2O2S/c1-18(12-7-3-2-4-8-12)15(19)11-20-16-17-13-9-5-6-10-14(13)21-16/h2-10H,11H2,1H3",XIGAUIHYSDTJHW-UHFFFAOYSA-N,CN(C(=O)COc1sc2ccccc2n1)c3ccccc3,-4.8727
3190,B-3191,"2,3',4,5-tetrachlorobiphenyl",InChI=1S/C12H6Cl4/c13-8-3-1-2-7(4-8)9-5-11(15)12(16)6-10(9)14/h1-6H,LQEGJNOKOZHBBZ-UHFFFAOYSA-N,Clc1cccc(c1)c2cc(Cl)c(Cl)cc2Cl,-7.1299
3191,B-3192,"1,1'-biphenyl, 2,2',3,5,6-pentachloro-",InChI=1S/C12H5Cl5/c13-7-4-2-1-3-6(7)10-11(16)8(14)5-9(15)12(10)17/h1-5H,BMXRLHMJGHJGLR-UHFFFAOYSA-N,Clc1ccccc1c2c(Cl)c(Cl)cc(Cl)c2Cl,-7.3999
3192,B-3193,"1,1'-biphenyl, 2,2',3,4,6'-pentachloro-",InChI=1S/C12H5Cl5/c13-7-2-1-3-8(14)10(7)6-4-5-9(15)12(17)11(6)16/h1-5H,GLOOIONSKMZYQZ-UHFFFAOYSA-N,Clc1ccc(c(Cl)c1Cl)c2c(Cl)cccc2Cl,-6.7798
3193,B-3194,"propanoic acid, 2-hydroxy-, 2-(hexyloxy)-1-methy","InChI=1S/C12H22O5/c1-4-5-6-7-8-16-12(15)10(3)17-11(14)9(2)13/h9-10,13H,4-8H2,1-3H3",GVMIXAYWPARWDD-UHFFFAOYSA-N,CCCCCCOC(=O)C(C)OC(=O)C(C)O,-2.4884
3194,B-3195,"2-pyrimidinecarboxamide, 4,6-dimethyl-","InChI=1S/C7H9N3O/c1-4-3-5(2)10-7(9-4)6(8)11/h3H,1-2H3,(H2,8,11)",GQSYNOBFTDVBDM-UHFFFAOYSA-N,Cc1cc(C)nc(n1)C(N)=O,0.1216
3195,B-3196,ketanserin,"InChI=1S/C22H22FN3O3/c23-17-7-5-15(6-8-17)20(27)16-9-11-25(12-10-16)13-14-26-21(28)18-3-1-2-4-19(18)24-22(26)29/h1-8,16H,9-14H2,(H,24,29)",FPCCSQOGAWCVBH-UHFFFAOYSA-N,Fc1ccc(cc1)C(=O)C2CCN(CC2)CCN3C(=O)Nc4ccccc4C3=O,-4.5971
3196,B-3197,aclonifen,"InChI=1S/C12H9ClN2O3/c13-11-10(18-8-4-2-1-3-5-8)7-6-9(12(11)14)15(16)17/h1-7H,14H2",DDBMQDADIHOWIC-UHFFFAOYSA-N,Nc1c(Cl)c(Oc2ccccc2)ccc1[N+]([O-])=O,-5.0248
3197,B-3198,"hydrazinecarboxamide, n-(4-ethoxyphenyl)-","InChI=1S/C9H13N3O2/c1-2-14-8-5-3-7(4-6-8)11-9(13)12-10/h3-6H,2,10H2,1H3,(H2,11,12,13)",ZKSWEXOGEZLKIX-UHFFFAOYSA-N,CCOc1ccc(NC(=O)NN)cc1,-1.6471
3198,B-3199,clofentezine,InChI=1S/C14H8Cl2N4/c15-11-7-3-1-5-9(11)13-17-19-14(20-18-13)10-6-2-4-8-12(10)16/h1-8H,UXADOQPNKNTIHB-UHFFFAOYSA-N,Clc1ccccc1c2nnc(nn2)c3ccccc3Cl,-5.4817
3199,B-3200,sulfometuron (ph 5-7),"InChI=1S/C15H16N4O5S/c1-9-8-10(2)17-14(16-9)18-15(21)19-25(22,23)12-7-5-4-6-11(12)13(20)24-3/h4-8H,1-3H3,(H2,16,17,18,19,21)",ZDXMLEQEMNLCQG-UHFFFAOYSA-N,COC(=O)c1ccccc1[S](=O)(=O)NC(=O)Nc2nc(C)cc(C)n2,-3.1742
3200,B-3201,"1,1'-biphenyl, 2,3,3',4-tetrachloro-",InChI=1S/C12H6Cl4/c13-8-3-1-2-7(6-8)9-4-5-10(14)12(16)11(9)15/h1-6H,ZKGSEEWIVLAUNH-UHFFFAOYSA-N,Clc1cccc(c1)c2ccc(Cl)c(Cl)c2Cl,-6.77
3201,B-3202,"1,1'-biphenyl, 2,3,4',5-tetrachloro-",InChI=1S/C12H6Cl4/c13-8-3-1-7(2-4-8)10-5-9(14)6-11(15)12(10)16/h1-6H,CITMYAMXIZQCJD-UHFFFAOYSA-N,Clc1ccc(cc1)c2cc(Cl)cc(Cl)c2Cl,-6.77
3202,B-3203,"1,1'-biphenyl, 2,3,3',5,6-pentachloro-",InChI=1S/C12H5Cl5/c13-7-3-1-2-6(4-7)10-11(16)8(14)5-9(15)12(10)17/h1-5H,NTKSJAPQYKCFPP-UHFFFAOYSA-N,Clc1cccc(c1)c2c(Cl)c(Cl)cc(Cl)c2Cl,-7.76
3203,B-3204,"2,3,4,4',5-pentachlorobiphenyl",InChI=1S/C12H5Cl5/c13-7-3-1-6(2-4-7)8-5-9(14)11(16)12(17)10(8)15/h1-5H,SXZSFWHOSHAKMN-UHFFFAOYSA-N,Clc1ccc(cc1)c2cc(Cl)c(Cl)c(Cl)c2Cl,-7.3102
3204,B-3205,"1,1'-biphenyl, 2,3,4,4',6-pentachloro-",InChI=1S/C12H5Cl5/c13-7-3-1-6(2-4-7)10-8(14)5-9(15)11(16)12(10)17/h1-5H,IOVARPVVZDOPGQ-UHFFFAOYSA-N,Clc1ccc(cc1)c2c(Cl)cc(Cl)c(Cl)c2Cl,-7.95
3205,B-3206,"2,3,3',4,4',6-hexachlorobiphenyl",InChI=1S/C12H4Cl6/c13-6-2-1-5(3-7(6)14)10-8(15)4-9(16)11(17)12(10)18/h1-4H,ZQUPQXINXTWCQR-UHFFFAOYSA-N,Clc1ccc(cc1Cl)c2c(Cl)cc(Cl)c(Cl)c2Cl,-7.6505
3206,B-3207,"2,3,3',4',5,6-hexachlorobiphenyl",InChI=1S/C12H4Cl6/c13-6-2-1-5(3-7(6)14)10-11(17)8(15)4-9(16)12(10)18/h1-4H,ZAGRQXMWMRUYRB-UHFFFAOYSA-N,Clc1ccc(cc1Cl)c2c(Cl)c(Cl)cc(Cl)c2Cl,-8.48
3207,B-3208,"1,1'-biphenyl, 2,3,3',4',5',6-hexachloro-",InChI=1S/C12H4Cl6/c13-6-1-2-7(14)12(18)10(6)5-3-8(15)11(17)9(16)4-5/h1-4H,HAZQOLYHFUUJJN-UHFFFAOYSA-N,Clc1ccc(Cl)c(c2cc(Cl)c(Cl)c(Cl)c2)c1Cl,-8.27
3208,B-3209,"2,3,3',5,5',6-hexachlorobiphenyl",InChI=1S/C12H4Cl6/c13-6-1-5(2-7(14)3-6)10-11(17)8(15)4-9(16)12(10)18/h1-4H,ZEATXTCWXKQPHO-UHFFFAOYSA-N,Clc1cc(Cl)cc(c1)c2c(Cl)c(Cl)cc(Cl)c2Cl,-8.2696
3209,B-3210,"1,1'-biphenyl, 2,2',3,4,4',5,6-heptachloro-",InChI=1S/C12H3Cl7/c13-4-1-2-5(6(14)3-4)7-8(15)10(17)12(19)11(18)9(7)16/h1-3H,DJEUXBQAKBLKPO-UHFFFAOYSA-N,Clc1ccc(c(Cl)c1)c2c(Cl)c(Cl)c(Cl)c(Cl)c2Cl,-8.9706
3210,B-3211,"1,1'-biphenyl, 2,3,3',4,4',5',6-heptachloro-",InChI=1S/C12H3Cl7/c13-5-3-8(16)11(18)12(19)9(5)4-1-6(14)10(17)7(15)2-4/h1-3H,TVFXBXWAXIMLAQ-UHFFFAOYSA-N,Clc1cc(Cl)c(c2cc(Cl)c(Cl)c(Cl)c2)c(Cl)c1Cl,-9.1
3211,B-3212,"1,1'-biphenyl, 2,3,3',4,5,5',6-heptachloro-",InChI=1S/C12H3Cl7/c13-5-1-4(2-6(14)3-5)7-8(15)10(17)12(19)11(18)9(7)16/h1-3H,ZUTDUGMNROUBOX-UHFFFAOYSA-N,Clc1cc(Cl)cc(c1)c2c(Cl)c(Cl)c(Cl)c(Cl)c2Cl,-9.1
3212,B-3213,"1,1'-biphenyl, 2,2',3,4,4',5,6,6'-octachloro-",InChI=1S/C12H2Cl8/c13-3-1-4(14)6(5(15)2-3)7-8(16)10(18)12(20)11(19)9(7)17/h1-2H,JDZUWXRNKHXZFE-UHFFFAOYSA-N,Clc1cc(Cl)c(c(Cl)c1)c2c(Cl)c(Cl)c(Cl)c(Cl)c2Cl,-9.48
3213,B-3214,"1,1'-biphenyl, 2,3,3',4,4',5,5',6-octachloro-",InChI=1S/C12H2Cl8/c13-4-1-3(2-5(14)7(4)15)6-8(16)10(18)12(20)11(19)9(6)17/h1-2H,VXXBCDUYUQKWCK-UHFFFAOYSA-N,Clc1cc(cc(Cl)c1Cl)c2c(Cl)c(Cl)c(Cl)c(Cl)c2Cl,-9.6997
3214,B-3215,"1,1'-biphenyl, 2,2',3,4',5,6'-heptachloro-",InChI=1S/C12H3Cl7/c13-4-1-5(14)9(6(15)2-4)10-11(18)7(16)3-8(17)12(10)19/h1-3H,MMTJWDQKGUNSDK-UHFFFAOYSA-N,Clc1cc(Cl)c(c(Cl)c1)c2c(Cl)c(Cl)cc(Cl)c2Cl,-8.4901
3215,B-3216,"2,5-dibromobenzaldehyde",InChI=1S/C7H4Br2O/c8-6-1-2-7(9)5(3-6)4-10/h1-4H,BQBXKWGMPUCSQV-UHFFFAOYSA-N,Brc1ccc(Br)c(C=O)c1,-3.8003
3216,B-3217,"methanedisulfonic acid, chloro-","InChI=1S/CH3ClO6S2/c2-1(9(3,4)5)10(6,7)8/h1H,(H,3,4,5)(H,6,7,8)",JFABEGSTCBAFEC-UHFFFAOYSA-N,O[S](=O)(=O)C(Cl)[S](O)(=O)=O,0.6765
3217,B-3218,bromobutide,"InChI=1S/C15H22BrNO/c1-14(2,3)12(16)13(18)17-15(4,5)11-9-7-6-8-10-11/h6-10,12H,1-5H3,(H,17,18)",WZDDLAZXUYIVMU-UHFFFAOYSA-N,CC(C)(C)C(Br)C(=O)NC(C)(C)c1ccccc1,-4.9455
3218,B-3219,fenpiclonil,"InChI=1S/C11H6Cl2N2/c12-10-3-1-2-8(11(10)13)9-6-15-5-7(9)4-14/h1-3,5-6,15H",FKLFBQCQQYDUAM-UHFFFAOYSA-N,Clc1cccc(c1Cl)c2c[nH]cc2C#N,-4.6937
3219,B-3220,oxabetrinil,"InChI=1S/C12H12N2O3/c13-8-11(10-4-2-1-3-5-10)14-17-9-12-15-6-7-16-12/h1-5,12H,6-7,9H2/b14-11+",WFVUIONFJOAYPK-SDNWHVSQSA-N,N#CC(=N\OCC1OCCO1)/c2ccccc2,-4.0649
3220,B-3221,diclobutrazol isomers,"InChI=1S/C15H19Cl2N3O/c1-15(2,3)14(21)13(20-9-18-8-19-20)6-10-4-5-11(16)7-12(10)17/h4-5,7-9,13-14,21H,6H2,1-3H3",URDNHJIVMYZFRT-UHFFFAOYSA-N,CC(C)(C)C(O)C(Cc1ccc(Cl)cc1Cl)n2cncn2,-4.5619
3221,B-3222,enalapril,"InChI=1S/C20H28N2O5/c1-3-27-20(26)16(12-11-15-8-5-4-6-9-15)21-14(2)18(23)22-13-7-10-17(22)19(24)25/h4-6,8-9,14,16-17,21H,3,7,10-13H2,1-2H3,(H,24,25)/t14-,16-,17-/m0/s1",GBXSMTUPTTWBMN-XIRDDKMYSA-N,CCOC(=O)[C@H](CCc1ccccc1)N[C@@H](C)C(=O)N2CCC[C@H]2C(O)=O,-1.3609
3222,B-3223,"phosphonic acid, [[4-(2-benzothiazolyl)phenyl]me","InChI=1S/C18H20NO3PS/c1-3-21-23(20,22-4-2)13-14-9-11-15(12-10-14)18-19-16-7-5-6-8-17(16)24-18/h5-12H,3-4,13H2,1-2H3",FVYRUSCZCWSFLT-UHFFFAOYSA-N,CCO[P](=O)(Cc1ccc(cc1)c2sc3ccccc3n2)OCC,-4.0017
3223,B-3224,"4h-imidazol-4-one, 2-amino-1-ethyl-1,5-dihydro-","InChI=1S/C5H9N3O/c1-2-8-3-4(9)7-5(8)6/h2-3H2,1H3,(H2,6,7,9)",LCDGAYYHFKVEAR-UHFFFAOYSA-N,CCN1CC(=O)N=C1N,-0.165
3224,B-3225,tecloftalam,"InChI=1S/C14H5Cl6NO3/c15-4-2-1-3-5(8(4)16)21-13(22)6-7(14(23)24)10(18)12(20)11(19)9(6)17/h1-3H,(H,21,22)(H,23,24)",ROZUQUDEWZIBHV-UHFFFAOYSA-N,OC(=O)c1c(Cl)c(Cl)c(Cl)c(Cl)c1C(=O)Nc2cccc(Cl)c2Cl,-4.5051
3225,B-3226,"methanetrisulfonic acid, chloro-","InChI=1S/CH3ClO9S3/c2-1(12(3,4)5,13(6,7)8)14(9,10)11/h(H,3,4,5)(H,6,7,8)(H,9,10,11)",AASRJJKRVOUFBO-UHFFFAOYSA-N,O[S](=O)(=O)C(Cl)([S](O)(=O)=O)[S](O)(=O)=O,0.5366
3226,B-3227,"l-alanine, n-(chloroacetyl)-, ethyl ester","InChI=1S/C7H12ClNO3/c1-3-12-7(11)5(2)9-6(10)4-8/h5H,3-4H2,1-2H3,(H,9,10)/t5-/m0/s1",VCQDLEOMZPPOFE-YFKPBYRVSA-N,CCOC(=O)[C@H](C)NC(=O)CCl,-0.4628
3227,B-3228,"benzoic acid, 2-(acetyloxy)-, (methylthio)methyl","InChI=1S/C11H12O4S/c1-8(12)15-10-6-4-3-5-9(10)11(13)14-7-16-2/h3-6H,7H2,1-2H3",YFFMJOPTIBTOJH-UHFFFAOYSA-N,CSCOC(=O)c1ccccc1OC(C)=O,-2.6404
3228,B-3229,"benzoic acid, 2-(acetyloxy)-, (methylsulfinyl)me","InChI=1S/C11H12O5S/c1-8(12)16-10-6-4-3-5-9(10)11(13)15-7-17(2)14/h3-6H,7H2,1-2H3",ZUYDNEVBJGMSGH-UHFFFAOYSA-N,CC(=O)Oc1ccccc1C(=O)OC[S](C)=O,-1.7824
3229,B-3230,"benzoic acid, 2-(acetyloxy)-, (methylsulfonyl)me","InChI=1S/C11H12O6S/c1-8(12)17-10-6-4-3-5-9(10)11(13)16-7-18(2,14)15/h3-6H,7H2,1-2H3",PTLSEGBRIAKFIJ-UHFFFAOYSA-N,CC(=O)Oc1ccccc1C(=O)OC[S](C)(=O)=O,-3.3936
3230,B-3231,2-(2-chlorophenoxy)propanoic acid,"InChI=1S/C9H9ClO3/c1-6(9(11)12)13-8-5-3-2-4-7(8)10/h2-6H,1H3,(H,11,12)",ZGWNXHRVUJVMCP-UHFFFAOYSA-N,CC(Oc1ccccc1Cl)C(O)=O,-2.2232
3231,B-3232,quizalofop,"InChI=1S/C17H13ClN2O4/c1-10(17(21)22)23-12-3-5-13(6-4-12)24-16-9-19-15-8-11(18)2-7-14(15)20-16/h2-10H,1H3,(H,21,22)",ABOOPXYCKNFDNJ-UHFFFAOYSA-N,CC(Oc1ccc(Oc2cnc3cc(Cl)ccc3n2)cc1)C(O)=O,-6.0604
3232,B-3233,quizalofop-ethyl,"InChI=1S/C19H17ClN2O4/c1-3-24-19(23)12(2)25-14-5-7-15(8-6-14)26-18-11-21-17-10-13(20)4-9-16(17)22-18/h4-12H,3H2,1-2H3",OSUHJPCHFDQAIT-UHFFFAOYSA-N,CCOC(=O)C(C)Oc1ccc(Oc2cnc3cc(Cl)ccc3n2)cc1,-6.0944
3233,B-3234,flutriafol (pp450),"InChI=1S/C16H13F2N3O/c17-13-7-5-12(6-8-13)16(22,9-21-11-19-10-20-21)14-3-1-2-4-15(14)18/h1-8,10-11,22H,9H2",JWUCHKBSVLQQCO-UHFFFAOYSA-N,OC(Cn1cncn1)(c2ccc(F)cc2)c3ccccc3F,-3.3651
3234,B-3235,"2',3,3',4,5-pentachlorobiphenyl",InChI=1S/C12H5Cl5/c13-8-3-1-2-7(11(8)16)6-4-9(14)12(17)10(15)5-6/h1-5H,GWOWBISZHLPYEK-UHFFFAOYSA-N,Clc1cccc(c2cc(Cl)c(Cl)c(Cl)c2)c1Cl,-7.4052
3235,B-3236,glufosinate-ammonium,"InChI=1S/C5H12NO4P.H3N/c1-11(9,10)3-2-4(6)5(7)8;/h4H,2-3,6H2,1H3,(H,7,8)(H,9,10);1H3",ZBMRKNMTMPPMMK-UHFFFAOYSA-N,[NH4+].C[P](O)(=O)CCC(N)C([O-])=O,0.8397
3236,B-3237,"glycine, n-(n-l-leucyl-l-alanyl)-","InChI=1S/C11H21N3O4/c1-6(2)4-8(12)11(18)14-7(3)10(17)13-5-9(15)16/h6-8H,4-5,12H2,1-3H3,(H,13,17)(H,14,18)(H,15,16)/t7-,8-/m0/s1",WNGVUZWBXZKQES-YUMQZZPRSA-N,CC(C)C[C@H](N)C(=O)N[C@@H](C)C(=O)NCC(O)=O,-0.8953
3237,B-3238,"carbamic acid, ethylmethyl-, ethyl ester","InChI=1S/C6H13NO2/c1-4-7(3)6(8)9-5-2/h4-5H2,1-3H3",XLPFLCTZNRMTQB-UHFFFAOYSA-N,CCOC(=O)N(C)CC,-0.4189
3238,B-3239,pyraclofos,"InChI=1S/C14H18ClN2O3PS/c1-3-9-22-21(18,19-4-2)20-14-10-16-17(11-14)13-7-5-12(15)6-8-13/h5-8,10-11H,3-4,9H2,1-2H3",QHGVXILFMXYDRS-UHFFFAOYSA-N,CCCS[P](=O)(OCC)Oc1cnn(c1)c2ccc(Cl)cc2,-4.0388
3239,B-3240,lactofen,"InChI=1S/C19H15ClF3NO7/c1-3-29-17(25)10(2)30-18(26)13-9-12(5-6-15(13)24(27)28)31-16-7-4-11(8-14(16)20)19(21,22)23/h4-10H,3H2,1-2H3",CONWAEURSVPLRM-UHFFFAOYSA-N,CCOC(=O)C(C)OC(=O)c1cc(Oc2ccc(cc2Cl)C(F)(F)F)ccc1[N+]([O-])=O,-6.6644
3240,B-3241,fluoroglycofenethyl,"InChI=1S/C18H13ClF3NO7/c1-2-28-16(24)9-29-17(25)12-8-11(4-5-14(12)23(26)27)30-15-6-3-10(7-13(15)19)18(20,21)22/h3-8H,2,9H2,1H3",IPPAUTOBDWNELX-UHFFFAOYSA-N,CCOC(=O)COC(=O)c1cc(Oc2ccc(cc2Cl)C(F)(F)F)ccc1[N+]([O-])=O,-5.8729
3241,B-3242,"2-butanol, 4,4-diethoxy-","InChI=1S/C8H18O3/c1-4-10-8(11-5-2)6-7(3)9/h7-9H,4-6H2,1-3H3",PZFICWWBEDKOSI-UHFFFAOYSA-N,CCOC(CC(C)O)OCC,0.0909
3242,B-3243,"4(1h)-pteridinone, hydrazone","InChI=1S/C6H6N6/c7-12-6-4-5(10-3-11-6)9-2-1-8-4/h1-3H,7H2,(H,9,10,11,12)",IDWVTPLLYFMNEX-UHFFFAOYSA-N,NN=C1N=CNc2nccnc12,-1.8632
3243,B-3244,oxadixyl,"InChI=1S/C14H18N2O4/c1-10-5-4-6-11(2)13(10)16(12(17)9-19-3)15-7-8-20-14(15)18/h4-6H,7-9H2,1-3H3",UWVQIROCRJWDKL-UHFFFAOYSA-N,COCC(=O)N(N1CCOC1=O)c2c(C)cccc2C,-1.913
3244,B-3245,"3-pyridinecarboxamide, n-hexyl-","InChI=1S/C12H18N2O/c1-2-3-4-5-9-14-12(15)11-7-6-8-13-10-11/h6-8,10H,2-5,9H2,1H3,(H,14,15)",QNWFROSVYQTOPU-UHFFFAOYSA-N,CCCCCCNC(=O)c1cccnc1,-2.5221
3245,B-3246,"2,4,6(1h,3h,5h)-pyrimidinetrione, 1-(2,3-dihydro","InChI=1S/C15H18N2O5/c1-2-15(10-6-4-3-5-7-10)12(20)16-14(22)17(13(15)21)8-11(19)9-18/h3-7,11,18-19H,2,8-9H2,1H3,(H,16,20,22)",HZSFDBKBUGUMOD-UHFFFAOYSA-N,CCC1(C(=O)NC(=O)N(CC(O)CO)C1=O)c2ccccc2,-1.7872
3246,B-3247,hexythiazox,"InChI=1S/C17H21ClN2O2S/c1-11-15(12-7-9-13(18)10-8-12)23-17(22)20(11)16(21)19-14-5-3-2-4-6-14/h7-11,14-15H,2-6H2,1H3,(H,19,21)/t11-,15?/m0/s1",XGWIJUOSCAQSSV-VPHXOMNUSA-N,C[C@H]1C(SC(=O)N1C(=O)NC2CCCCC2)c3ccc(Cl)cc3,-5.8487
3247,B-3248,fenoxycarb,"InChI=1S/C17H19NO4/c1-2-20-17(19)18-12-13-21-14-8-10-16(11-9-14)22-15-6-4-3-5-7-15/h3-11H,2,12-13H2,1H3,(H,18,19)",HJUFTIJOISQSKQ-UHFFFAOYSA-N,CCOC(=O)NCCOc1ccc(Oc2ccccc2)cc1,-4.7009
3248,B-3249,fluazifop-p-butyl,"InChI=1S/C19H20F3NO4/c1-3-4-11-25-18(24)13(2)26-15-6-8-16(9-7-15)27-17-10-5-14(12-23-17)19(20,21)22/h5-10,12-13H,3-4,11H2,1-2H3/t13-/m1/s1",VAIZTNZGPYBOGF-CYBMUJFWSA-N,CCCCOC(=O)[C@@H](C)Oc1ccc(Oc2ccc(cn2)C(F)(F)F)cc1,-5.2826
3249,B-3250,harmony,"InChI=1S/C12H13N5O6S2/c1-6-13-10(16-12(14-6)23-3)15-11(19)17-25(20,21)7-4-5-24-8(7)9(18)22-2/h4-5H,1-3H3,(H2,13,14,15,16,17,19)",AHTPATJNIAFOLR-UHFFFAOYSA-N,COC(=O)c1sccc1[S](=O)(=O)NC(=O)Nc2nc(C)nc(OC)n2,-2.2379
3250,B-3251,tetrafluthrin,"InChI=1S/C17H14ClF7O2/c1-6-11(19)13(21)7(14(22)12(6)20)5-27-15(26)10-8(16(10,2)3)4-9(18)17(23,24)25/h4,8,10H,5H2,1-3H3/b9-4-",ZFHGXWPMULPQSE-WTKPLQERSA-N,Cc1c(F)c(F)c(COC(=O)C2C(\C=C(/Cl)C(F)(F)F)C2(C)C)c(F)c1F,-7.3209
3251,B-3252,"butanamide, n,n,2-triethyl-","InChI=1S/C10H21NO/c1-5-9(6-2)10(12)11(7-3)8-4/h9H,5-8H2,1-4H3",KLVRKNJSKXACLQ-UHFFFAOYSA-N,CCC(CC)C(=O)N(CC)CC,-1.0876
3252,B-3253,simvastatin,"InChI=1S/C25H38O5/c1-6-25(4,5)24(28)30-21-12-15(2)11-17-8-7-16(3)20(23(17)21)10-9-19-13-18(26)14-22(27)29-19/h7-8,11,15-16,18-21,23,26H,6,9-10,12-14H2,1-5H3/t15-,16-,18+,19+,20-,21-,23-/m0/s1",RYMZZMVNJRMUDD-HGQWONQESA-N,CCC(C)(C)C(=O)O[C@H]1C[C@@H](C)C=C2C=C[C@H](C)[C@H](CC[C@@H]3C[C@@H](O)CC(=O)O3)[C@@H]12,-7.1447
3253,B-3254,hexaconazole,"InChI=1S/C14H17Cl2N3O/c1-2-3-6-14(20,8-19-10-17-9-18-19)12-5-4-11(15)7-13(12)16/h4-5,7,9-10,20H,2-3,6,8H2,1H3",STMIIPIFODONDC-UHFFFAOYSA-N,CCCCC(O)(Cn1cncn1)c2ccc(Cl)cc2Cl,-4.2668
3254,B-3255,diafenthiuron,"InChI=1S/C23H32N2OS/c1-15(2)19-13-18(26-17-11-9-8-10-12-17)14-20(16(3)4)21(19)24-22(27)25-23(5,6)7/h8-16H,1-7H3,(H2,24,25,27)",WOWBFOBYOAGEEA-UHFFFAOYSA-N,CC(C)c1cc(Oc2ccccc2)cc(C(C)C)c1NC(=S)NC(C)(C)C,-6.8068
3255,B-3256,etofenprox,"InChI=1S/C25H28O3/c1-4-27-22-15-13-21(14-16-22)25(2,3)19-26-18-20-9-8-12-24(17-20)28-23-10-6-5-7-11-23/h5-17H,4,18-19H2,1-3H3",YREQHYQNNWYQCJ-UHFFFAOYSA-N,CCOc1ccc(cc1)C(C)(C)COCc2cccc(Oc3ccccc3)c2,-8.5758
3256,B-3257,imazapyr,"InChI=1S/C13H15N3O3/c1-7(2)13(3)12(19)15-10(16-13)9-8(11(17)18)5-4-6-14-9/h4-7H,1-3H3,(H,17,18)(H,15,16,19)",CLQMBPJKHLGMQK-UHFFFAOYSA-N,CC(C)C1(C)N=C(NC1=O)c2ncccc2C(O)=O,-1.364
3257,B-3258,imazaquin,"InChI=1S/C17H17N3O3/c1-9(2)17(3)16(23)19-14(20-17)13-11(15(21)22)8-10-6-4-5-7-12(10)18-13/h4-9H,1-3H3,(H,21,22)(H,19,20,23)",CABMTIJINOIHOD-UHFFFAOYSA-N,CC(C)C1(C)N=C(NC1=O)c2nc3ccccc3cc2C(O)=O,-3.5389999999999997
3258,B-3259,imazethapyr,"InChI=1S/C15H19N3O3/c1-5-9-6-10(13(19)20)11(16-7-9)12-17-14(21)15(4,18-12)8(2)3/h6-8H,5H2,1-4H3,(H,19,20)(H,17,18,21)",XVOKUMIPKHGGTN-UHFFFAOYSA-N,CCc1cnc(C2=NC(C)(C(C)C)C(=O)N2)c(c1)C(O)=O,-2.3153
3259,B-3260,imazamethabenz (isomer mix),"InChI=1S/C16H20N2O3/c1-9(2)16(4)15(20)17-13(18-16)12-8-10(3)6-7-11(12)14(19)21-5/h6-9H,1-5H3,(H,17,18,20)",FFCCBBNQPIMUJI-UHFFFAOYSA-N,COC(=O)c1ccc(C)cc1C2=NC(C)(C(C)C)C(=O)N2,-2.4599
3260,B-3261,fluroxypyr-meptyl,"InChI=1S/C15H21Cl2FN2O3/c1-3-4-5-6-7-9(2)23-10(21)8-22-15-12(17)13(19)11(16)14(18)20-15/h9H,3-8H2,1-2H3,(H2,19,20)",OLZQTUCTGLHFTQ-UHFFFAOYSA-N,CCCCCCC(C)OC(=O)COc1nc(F)c(Cl)c(N)c1Cl,-6.6107
3261,B-3262,"3-pyridinecarboxamide, n-octyl-","InChI=1S/C14H22N2O/c1-2-3-4-5-6-7-11-16-14(17)13-9-8-10-15-12-13/h8-10,12H,2-7,11H2,1H3,(H,16,17)",JSIDBRSPTZXMGO-UHFFFAOYSA-N,CCCCCCCCNC(=O)c1cccnc1,-3.0081
3262,B-3263,"3-pyridinecarboxamide, n-nonyl-","InChI=1S/C15H24N2O/c1-2-3-4-5-6-7-8-12-17-15(18)14-10-9-11-16-13-14/h9-11,13H,2-8,12H2,1H3,(H,17,18)",GPBKHZUWQWRROQ-UHFFFAOYSA-N,CCCCCCCCCNC(=O)c1cccnc1,-3.1398
3263,B-3264,"3-pyridinecarboxamide, n-decyl-","InChI=1S/C16H26N2O/c1-2-3-4-5-6-7-8-9-13-18-16(19)15-11-10-12-17-14-15/h10-12,14H,2-9,13H2,1H3,(H,18,19)",STKCVSYDRUHCAT-UHFFFAOYSA-N,CCCCCCCCCCNC(=O)c1cccnc1,-3.0765
3264,B-3265,"3-pyridinecarboxamide, n-undecyl-","InChI=1S/C17H28N2O/c1-2-3-4-5-6-7-8-9-10-14-19-17(20)16-12-11-13-18-15-16/h11-13,15H,2-10,14H2,1H3,(H,19,20)",OEDGRBFONRSXRX-UHFFFAOYSA-N,CCCCCCCCCCCNC(=O)c1cccnc1,-3.0266
3265,B-3266,"3-pyridinecarboxamide, n-dodecyl-","InChI=1S/C18H30N2O/c1-2-3-4-5-6-7-8-9-10-11-15-20-18(21)17-13-12-14-19-16-17/h12-14,16H,2-11,15H2,1H3,(H,20,21)",XVQJYCJZQVBVTL-UHFFFAOYSA-N,CCCCCCCCCCCCNC(=O)c1cccnc1,-3.2078
3266,B-3267,clomazone,"InChI=1S/C12H14ClNO2/c1-12(2)8-16-14(11(12)15)7-9-5-3-4-6-10(9)13/h3-6H,7-8H2,1-2H3",KIEDNEWSYUYDSN-UHFFFAOYSA-N,CC1(C)CON(Cc2ccccc2Cl)C1=O,-2.3383
3267,B-3268,triasulfuron,"InChI=1S/C14H16ClN5O5S/c1-9-16-12(19-14(17-9)24-2)18-13(21)20-26(22,23)11-6-4-3-5-10(11)25-8-7-15/h3-6H,7-8H2,1-2H3,(H2,16,17,18,19,20,21)",XOPFESVZMSQIKC-UHFFFAOYSA-N,COc1nc(C)nc(NC(=O)N[S](=O)(=O)c2ccccc2OCCCl)n1,-4.0989
3268,B-3269,fenoxaprop-ethyl,"InChI=1S/C18H16ClNO5/c1-3-22-17(21)11(2)23-13-5-7-14(8-6-13)24-18-20-15-9-4-12(19)10-16(15)25-18/h4-11H,3H2,1-2H3",PQKBPHSEKWERTG-UHFFFAOYSA-N,CCOC(=O)C(C)Oc1ccc(Oc2oc3cc(Cl)ccc3n2)cc1,-5.6042
3269,B-3270,"5,8-quinolinedione, dioxime","InChI=1S/C9H7N3O2/c13-11-7-3-4-8(12-14)9-6(7)2-1-5-10-9/h1-5,13-14H",SXQRHGCUOZOOAF-UHFFFAOYSA-N,ON=C1C=CC(=NO)c2ncccc12,-3.7998
3270,B-3271,triadimenol (diastereoisomer b),"InChI=1S/C14H18ClN3O2/c1-14(2,3)12(19)13(18-9-16-8-17-18)20-11-6-4-10(15)5-7-11/h4-9,12-13,19H,1-3H3/t12-,13+/m1/s1",BAZVSMNPJJMILC-OLZOCXBDSA-N,CC(C)(C)[C@H](O)[C@H](Oc1ccc(Cl)cc1)n2cncn2,-3.9524
3271,B-3272,inabenfide,"InChI=1S/C19H15ClN2O2/c20-15-6-7-17(22-19(24)14-8-10-21-11-9-14)16(12-15)18(23)13-4-2-1-3-5-13/h1-12,18,23H,(H,22,24)",PFDCOZXELJAUTR-UHFFFAOYSA-N,OC(c1ccccc1)c2cc(Cl)ccc2NC(=O)c3ccncc3,-5.5299