,ID,Name,InChI,InChIKey,SMILES,Solubility
347,B-348,"1,2-dicyanobenzene",InChI=1S/C8H4N2/c9-5-7-3-1-2-4-8(7)6-10/h1-4H,XQZYPMVTSDWCCE-UHFFFAOYSA-N,N#Cc1ccccc1C#N,-2.5111
348,B-349,decahydronaphthalene,"InChI=1S/C10H18/c1-2-6-10-8-4-3-7-9(10)5-1/h9-10H,1-8H2",NNBZCPXTIHJBJL-UHFFFAOYSA-N,C1CCC2CCCCC2C1,-5.1918
349,B-350,quinoxaline,InChI=1S/C8H6N2/c1-2-4-8-7(3-1)9-5-6-10-8/h1-6H,XSCHRSMBECNVNS-UHFFFAOYSA-N,c1ccc2nccnc2c1,0.7051
350,B-351,2-naphthylamine,"InChI=1S/C10H9N/c11-10-6-5-8-3-1-2-4-9(8)7-10/h1-7H,11H2",JBIJLHTVPXGSAM-UHFFFAOYSA-N,Nc1ccc2ccccc2c1,-2.8795
351,B-352,benzoguanamine,"InChI=1S/C9H9N5/c10-8-12-7(13-9(11)14-8)6-4-2-1-3-5-6/h1-5H,(H4,10,11,12,13,14)",GZVHEAJQGPRDLQ-UHFFFAOYSA-N,Nc1nc(N)nc(n1)c2ccccc2,-2.4942
352,B-353,methapyrilene,"InChI=1S/C14H19N3S/c1-16(2)9-10-17(12-13-6-5-11-18-13)14-7-3-4-8-15-14/h3-8,11H,9-10,12H2,1-2H3",HNJJXZKZRAWDPF-UHFFFAOYSA-N,CN(C)CCN(Cc1sccc1)c2ccccn2,-2.6383
353,B-354,4-phenylcatechol,"InChI=1S/C12H10O2/c13-11-7-6-10(8-12(11)14)9-4-2-1-3-5-9/h1-8,13-14H",QDNPCYCBQFHNJC-UHFFFAOYSA-N,Oc1ccc(cc1O)c2ccccc2,-2.0659
354,B-355,m-terphenyl,InChI=1S/C18H14/c1-3-8-15(9-4-1)17-12-7-13-18(14-17)16-10-5-2-6-11-16/h1-14H,YJTKZCDBKVTVBY-UHFFFAOYSA-N,c1ccc(cc1)c2cccc(c2)c3ccccc3,-5.183
355,B-356,tolonium chloride,"InChI=1S/C15H16N3S.ClH/c1-9-6-13-15(8-11(9)16)19-14-7-10(18(2)3)4-5-12(14)17-13;/h4-8H,16H2,1-3H3;1H/q+1;/p-1",HNONEKILPDHFOL-UHFFFAOYSA-M,[Cl-].CN(C)c1ccc2nc3cc(C)c(N)cc3[s+]c2c1,-0.9034
356,B-357,"2,3-naphthalenediol","InChI=1S/C10H8O2/c11-9-5-7-3-1-2-4-8(7)6-10(9)12/h1-6,11-12H",JRNGUTKWMSBIBF-UHFFFAOYSA-N,Oc1cc2ccccc2cc1O,-2.7377
357,B-358,"ethanol, 2-(ethylphenylamino)-","InChI=1S/C10H15NO/c1-2-11(8-9-12)10-6-4-3-5-7-10/h3-7,12H,2,8-9H2,1H3",HYVGFUIWHXLVNV-UHFFFAOYSA-N,CCN(CCO)c1ccccc1,-1.9171
358,B-359,"3,6-diaminoacridine","InChI=1S/C13H11N3/c14-10-3-1-8-5-9-2-4-11(15)7-13(9)16-12(8)6-10/h1-7H,14-15H2",WDVSHHCDHLJJJR-UHFFFAOYSA-N,Nc1ccc2cc3ccc(N)cc3nc2c1,0.3783
359,B-360,4-acetylbiphenyl,"InChI=1S/C14H12O/c1-11(15)12-7-9-14(10-8-12)13-5-3-2-4-6-13/h2-10H,1H3",QCZZSANNLWPGEA-UHFFFAOYSA-N,CC(=O)c1ccc(cc1)c2ccccc2,-3.3104
360,B-361,p-nitrobiphenyl,InChI=1S/C12H9NO2/c14-13(15)12-8-6-11(7-9-12)10-4-2-1-3-5-10/h1-9H,BAJQRLZAPXASRD-UHFFFAOYSA-N,[O-][N+](=O)c1ccc(cc1)c2ccccc2,-5.2094
361,B-362,"benzaldehyde, 2,5-dimethoxy-","InChI=1S/C9H10O3/c1-11-8-3-4-9(12-2)7(5-8)6-10/h3-6H,1-2H3",AFUKNJHPZAVHGQ-UHFFFAOYSA-N,COc1ccc(OC)c(C=O)c1,-2.3202
362,B-363,1-(2-naphthalenyl)ethanone,"InChI=1S/C12H10O/c1-9(13)11-7-6-10-4-2-3-5-12(10)8-11/h2-8H,1H3",XSAYZAUNJMRRIR-UHFFFAOYSA-N,CC(=O)c1ccc2ccccc2c1,-2.7964
363,B-364,2-quinolinecarboxylic acid,"InChI=1S/C10H7NO2/c12-10(13)9-6-5-7-3-1-2-4-8(7)11-9/h1-6H,(H,12,13)",LOAUVZALPPNFOQ-UHFFFAOYSA-N,OC(=O)c1ccc2ccccc2n1,-1.0911
364,B-365,"1,2-propanediol, 3-(2-methoxyphenoxy)-","InChI=1S/C10H14O4/c1-13-9-4-2-3-5-10(9)14-7-8(12)6-11/h2-5,8,11-12H,6-7H2,1H3",HSRJKNPTNIJEKV-UHFFFAOYSA-N,COc1ccccc1OCC(O)CO,-0.5982
365,B-366,methyleugenol,"InChI=1S/C11H14O2/c1-4-5-9-6-7-10(12-2)11(8-9)13-3/h4,6-8H,1,5H2,2-3H3",ZYEMGPIYFIJGTP-UHFFFAOYSA-N,COc1ccc(CC=C)cc1OC,-2.552
366,B-367,"quinoline, 2,7-dimethyl-","InChI=1S/C11H11N/c1-8-3-5-10-6-4-9(2)12-11(10)7-8/h3-7H,1-2H3",QXKPLNCZSFACPU-UHFFFAOYSA-N,Cc1ccc2ccc(C)nc2c1,-1.9424
367,B-368,"2-chloro-n,n-diallylacetamide","InChI=1S/C8H12ClNO/c1-3-5-10(6-4-2)8(11)7-9/h3-4H,1-2,5-7H2",MDBGGTQNNUOQRC-UHFFFAOYSA-N,ClCC(=O)N(CC=C)CC=C,-0.9452
368,B-369,"2,4,5-tb","InChI=1S/C10H9Cl3O3/c11-6-4-8(13)9(5-7(6)12)16-3-1-2-10(14)15/h4-5H,1-3H2,(H,14,15)",RTWCZQFXFMXXKP-UHFFFAOYSA-N,OC(=O)CCCOc1cc(Cl)c(Cl)cc1Cl,-3.8294
369,B-370,"1,3-butanedione, 1-phenyl-","InChI=1S/C10H10O2/c1-8(11)7-10(12)9-5-3-2-4-6-9/h2-6H,7H2,1H3",CVBUKMMMRLOKQR-UHFFFAOYSA-N,CC(=O)CC(=O)c1ccccc1,-2.6268
370,B-371,"benzoic acid, anhydride",InChI=1S/C14H10O3/c15-13(11-7-3-1-4-8-11)17-14(16)12-9-5-2-6-10-12/h1-10H,CHIHQLCVLOXUJW-UHFFFAOYSA-N,O=C(OC(=O)c1ccccc1)c2ccccc2,-4.3546
371,B-372,"2,4-d, isopropyl ester","InChI=1S/C11H12Cl2O3/c1-7(2)16-11(14)6-15-10-4-3-8(12)5-9(10)13/h3-5,7H,6H2,1-2H3",WHOKDONDRZNCBC-UHFFFAOYSA-N,CC(C)OC(=O)COc1ccc(Cl)cc1Cl,-3.8480000000000003
372,B-373,"benzoic acid, 4-amino-, 2-methylpropyl ester","InChI=1S/C11H15NO2/c1-8(2)7-14-11(13)9-3-5-10(12)6-4-9/h3-6,8H,7,12H2,1-2H3",PUYOAVGNCWPANW-UHFFFAOYSA-N,CC(C)COC(=O)c1ccc(N)cc1,-2.9437
373,B-374,parethoxycaine,"InChI=1S/C15H23NO3/c1-4-16(5-2)11-12-19-15(17)13-7-9-14(10-8-13)18-6-3/h7-10H,4-6,11-12H2,1-3H3",OWWVHQUOYSPNNE-UHFFFAOYSA-N,CCOc1ccc(cc1)C(=O)OCCN(CC)CC,-2.7145
374,B-375,butyl-p-aminobenzoate,"InChI=1S/C11H15NO2/c1-2-3-8-14-11(13)9-4-6-10(12)7-5-9/h4-7H,2-3,8,12H2,1H3",IUWVALYLNVXWKX-UHFFFAOYSA-N,CCCCOC(=O)c1ccc(N)cc1,-2.7611
375,B-376,pralidoxime iodide [usan:inn:jan],"InChI=1S/C7H8N2O.HI/c1-9-5-3-2-4-7(9)6-8-10;/h2-6H,1H3;1H/b7-6+;",QNBVYCDYFJUNLO-UHDJGPCESA-N,[I-].CN1C=CC=C\C1=C/[NH+]=O,-0.7405
376,B-377,"2,4-d, butyl ester","InChI=1S/C12H14Cl2O3/c1-2-3-6-16-12(15)8-17-11-5-4-9(13)7-10(11)14/h4-5,7H,2-3,6,8H2,1H3",UQMRAFJOBWOFNS-UHFFFAOYSA-N,CCCCOC(=O)COc1ccc(Cl)cc1Cl,-3.78
377,B-378,mcpb,"InChI=1S/C11H13ClO3/c1-8-7-9(12)4-5-10(8)15-6-2-3-11(13)14/h4-5,7H,2-3,6H2,1H3,(H,13,14)",LLWADFLAOKUBDR-UHFFFAOYSA-N,Cc1cc(Cl)ccc1OCCCC(O)=O,-3.678
378,B-379,"2,4-deb","InChI=1S/C15H12Cl2O3/c16-12-6-7-14(13(17)10-12)19-8-9-20-15(18)11-4-2-1-3-5-11/h1-7,10H,8-9H2",LGURYBCSJPXHTF-UHFFFAOYSA-N,Clc1ccc(OCCOC(=O)c2ccccc2)c(Cl)c1,-3.8118
379,B-380,"2-ethyl-1,3-hexandiol","InChI=1S/C8H18O2/c1-3-5-8(10)7(4-2)6-9/h7-10H,3-6H2,1-2H3",RWLALWYNXFYRGW-UHFFFAOYSA-N,CCCC(O)C(CC)CO,-0.5418
380,B-381,sulfallate,"InChI=1S/C8H14ClNS2/c1-4-10(5-2)8(11)12-6-7(3)9/h3-6H2,1-2H3",XJCLWVXTCRQIDI-UHFFFAOYSA-N,CCN(CC)C(=S)SCC(Cl)=C,-3.3498
381,B-382,triethylene glycol bis(2-ethylbutyrate),"InChI=1S/C18H34O6/c1-5-15(6-2)17(19)23-13-11-21-9-10-22-12-14-24-18(20)16(7-3)8-4/h15-16H,5-14H2,1-4H3",JEYLQCXBYFQJRO-UHFFFAOYSA-N,CCC(CC)C(=O)OCCOCCOCCOC(=O)C(CC)CC,-3.2386
382,B-383,dimethyl glyoxime,"InChI=1S/C4H8N2O2/c1-3(5-7)4(2)6-8/h5,7H,1-2H3/b4-3-",OFZZNQXYRRSXOI-ARJAWSKDSA-N,C\C(NO)=C(/C)N=O,-2.2868
383,B-384,"3,4-xylidine","InChI=1S/C8H11N/c1-6-3-4-8(9)5-7(6)2/h3-5H,9H2,1-2H3",DOLQYFPDPKPQSS-UHFFFAOYSA-N,Cc1ccc(N)cc1C,-1.5036
384,B-385,"3,4-dichlorotoluene","InChI=1S/C7H6Cl2/c1-5-2-3-6(8)7(9)4-5/h2-4H,1H3",WYUIWKFIFOJVKW-UHFFFAOYSA-N,Cc1ccc(Cl)c(Cl)c1,-3.7919
385,B-386,"3,4-dichlorophenol","InChI=1S/C6H4Cl2O/c7-5-2-1-4(9)3-6(5)8/h1-3,9H",WDNBURPWRNALGP-UHFFFAOYSA-N,Oc1ccc(Cl)c(Cl)c1,-1.2458
386,B-387,ethyl oxalate,"InChI=1S/C6H10O4/c1-3-9-5(7)6(8)10-4-2/h3-4H2,1-2H3",WYACBZDAHNBPPB-UHFFFAOYSA-N,CCOC(=O)C(=O)OCC,-0.6085
387,B-388,"1,2-dibromo-3-chloropropane","InChI=1S/C3H5Br2Cl/c4-1-3(5)2-6/h3H,1-2H2",WBEJYOJJBDISQU-UHFFFAOYSA-N,ClCC(Br)CBr,-2.2836
388,B-389,"2,3-dibromo-1-propanol","InChI=1S/C3H6Br2O/c4-1-3(5)2-6/h3,6H,1-2H2",QWVCIORZLNBIIC-UHFFFAOYSA-N,OCC(Br)CBr,-0.6222
389,B-390,"1,2,3-trichloropropane","InChI=1S/C3H5Cl3/c4-1-3(6)2-5/h3H,1-2H2",CFXQEHVMCRXUSD-UHFFFAOYSA-N,ClCC(Cl)CCl,-1.9255
390,B-391,2-amino-1-butanol,"InChI=1S/C4H11NO/c1-2-4(5)3-6/h4,6H,2-3,5H2,1H3",JCBPETKZIGVZRE-UHFFFAOYSA-N,CCC(N)CO,1.0499
391,B-392,"3-chloro-1,2-propanediol","InChI=1S/C3H7ClO2/c4-1-3(6)2-5/h3,5-6H,1-2H2",SSZWWUDQMAHNAQ-UHFFFAOYSA-N,OCC(O)CCl,0.9565
392,B-393,2-butanone oxime,"InChI=1S/C4H9NO/c1-3-4(2)5-6/h6H,3H2,1-2H3/b5-4+",WHIVNJATOVLWBW-SNAWJCMRSA-N,CC\C(C)=N\O,0.0599
393,B-394,methyl chloroacetate,"InChI=1S/C3H5ClO2/c1-6-3(5)2-4/h2H2,1H3",QABLOFMHHSOFRJ-UHFFFAOYSA-N,COC(=O)CCl,-0.3728
394,B-395,2-methyltetrahydrofuran,"InChI=1S/C5H10O/c1-5-3-2-4-6-5/h5H,2-4H2,1H3",JWUJQDFVADABEY-UHFFFAOYSA-N,CC1CCCO1,0.2069
395,B-396,gamma-butyrolactone,InChI=1S/C4H6O2/c5-4-2-1-3-6-4/h1-3H2,YEJRWHAVMIAJKC-UHFFFAOYSA-N,O=C1CCCO1,1.065
396,B-397,"1,3-dioxolan-2-one",InChI=1S/C3H4O3/c4-3-5-1-2-6-3/h1-2H2,KMTRUDSVKNLOMY-UHFFFAOYSA-N,O=C1OCCO1,1.0552
397,B-398,soman,"InChI=1S/C7H16FO2P/c1-6(7(2,3)4)10-11(5,8)9/h6H,1-5H3",GRXKLBBBQUKJJZ-UHFFFAOYSA-N,CC(O[P](C)(F)=O)C(C)(C)C,-0.9383
398,B-399,"2,4-di-t-butylphenol","InChI=1S/C14H22O/c1-13(2,3)10-7-8-12(15)11(9-10)14(4,5)6/h7-9,15H,1-6H3",ICKWICRCANNIBI-UHFFFAOYSA-N,CC(C)(C)c1ccc(O)c(c1)C(C)(C)C,-3.7705
399,B-400,2-(bis(1-methylethyl)amino)ethanol,"InChI=1S/C8H19NO/c1-7(2)9(5-6-10)8(3)4/h7-8,10H,5-6H2,1-4H3",ZYWUVGFIXPNBDL-UHFFFAOYSA-N,CC(C)N(CCO)C(C)C,-1.0829
400,B-401,"l-valine, n-acetyl-","InChI=1S/C7H13NO3/c1-4(2)6(7(10)11)8-5(3)9/h4,6H,1-3H3,(H,8,9)(H,10,11)/t6-/m0/s1",IHYJTAOFMMMOPX-LURJTMIESA-N,CC(C)[C@H](NC(C)=O)C(O)=O,-0.3599
401,B-402,"2-piperidinecarboxamide, n-(2,6-dimethylphenyl)-","InChI=1S/C15H22N2O/c1-11-7-6-8-12(2)14(11)16-15(18)13-9-4-5-10-17(13)3/h6-8,13H,4-5,9-10H2,1-3H3,(H,16,18)",INWLQCZOYSRPNW-UHFFFAOYSA-N,CN1CCCCC1C(=O)Nc2c(C)cccc2C,-1.5465
402,B-403,"benzenamine, 4-methoxy-2-nitro-","InChI=1S/C7H8N2O3/c1-12-5-2-3-6(8)7(4-5)9(10)11/h2-4H,8H2,1H3",QFMJFXFXQAFGBO-UHFFFAOYSA-N,COc1ccc(N)c(c1)[N+]([O-])=O,-3.1465
403,B-404,"phenol, 2,2'-thiobis 4,6-dichloro-","InChI=1S/C12H6Cl4O2S/c13-5-1-7(15)11(17)9(3-5)19-10-4-6(14)2-8(16)12(10)18/h1-4,17-18H",JFIOVJDNOJYLKP-UHFFFAOYSA-N,Oc1c(Cl)cc(Cl)cc1Sc2cc(Cl)cc(Cl)c2O,-4.9495
404,B-405,o-aminoazotoluene,"InChI=1S/C14H15N3/c1-10-5-3-4-6-14(10)17-16-12-7-8-13(15)11(2)9-12/h3-9H,15H2,1-2H3",PFRYFZZSECNQOL-UHFFFAOYSA-N,Cc1ccccc1N=Nc2ccc(N)c(C)c2,-4.5077
405,B-406,allantoin,"InChI=1S/C4H6N4O3/c5-3(10)6-1-2(9)8-4(11)7-1/h1H,(H3,5,6,10)(H2,7,8,9,11)",POJWUDADGALRAB-UHFFFAOYSA-N,NC(=O)NC1NC(=O)NC1=O,-1.4778
406,B-407,"pentanoic acid, 2-methyl-","InChI=1S/C6H12O2/c1-3-4-5(2)6(7)8/h5H,3-4H2,1-2H3,(H,7,8)",OVBFMEVBMNZIBR-UHFFFAOYSA-N,CCCC(C)C(O)=O,-0.889
407,B-408,ethyl lactate,"InChI=1S/C5H10O3/c1-3-8-5(7)4(2)6/h4,6H,3H2,1-2H3",LZCLXQDLBQLTDK-UHFFFAOYSA-N,CCOC(=O)C(C)O,0.9276
408,B-409,"butanedioic acid, methylene-","InChI=1S/C5H6O4/c1-3(5(8)9)2-4(6)7/h1-2H2,(H,6,7)(H,8,9)",LVHBHZANLOWSRM-UHFFFAOYSA-N,OC(=O)CC(=C)C(O)=O,-0.2289
409,B-410,isobutyl isobutyrate,"InChI=1S/C8H16O2/c1-6(2)5-10-8(9)7(3)4/h6-7H,5H2,1-4H3",RXGUIWHIADMCFC-UHFFFAOYSA-N,CC(C)COC(=O)C(C)C,-2.1590000000000003
410,B-411,2-ethyl-1-butanol,"InChI=1S/C6H14O/c1-3-6(4-2)5-7/h6-7H,3-5H2,1-2H3",TZYRSLHNPKPEFV-UHFFFAOYSA-N,CCC(CC)CO,-1.4073
411,B-412,tetrahydrofurfuryl alcohol,"InChI=1S/C5H10O2/c6-4-5-2-1-3-7-5/h5-6H,1-4H2",BSYVTEYKTMYBMK-UHFFFAOYSA-N,OCC1CCCO1,0.9908
412,B-413,2-hydroxymethylfuran,"InChI=1S/C5H6O2/c6-4-5-2-1-3-7-5/h1-3,6H,4H2",XPFVYQJUAUNWIW-UHFFFAOYSA-N,OCc1occc1,1.0083
413,B-414,3-trifluoromethylaniline,"InChI=1S/C7H6F3N/c8-7(9,10)5-2-1-3-6(11)4-5/h1-4H,11H2",VIUDTWATMPPKEL-UHFFFAOYSA-N,Nc1cccc(c1)C(F)(F)F,-1.4704
414,B-415,"1,2-benzenediol, 4-(1,1-dimethylethyl)-","InChI=1S/C10H14O2/c1-10(2,3)7-4-5-8(11)9(12)6-7/h4-6,11-12H,1-3H3",XESZUVZBAMCAEJ-UHFFFAOYSA-N,CC(C)(C)c1ccc(O)c(O)c1,-1.9197
415,B-416,"benzenesulfonic acid, 3-amino-4-methoxy-","InChI=1S/C7H9NO4S/c1-12-7-3-2-5(4-6(7)8)13(9,10)11/h2-4H,8H2,1H3,(H,9,10,11)",FLIOATBXVNLPLK-UHFFFAOYSA-N,COc1ccc(cc1N)[S](O)(=O)=O,-0.8997
416,B-417,"benzoic acid, 2-amino-4-sulfo-","InChI=1S/C7H7NO5S/c8-6-3-4(14(11,12)13)1-2-5(6)7(9)10/h1-3H,8H2,(H,9,10)(H,11,12,13)",GRGSHONWRKRWGP-UHFFFAOYSA-N,Nc1cc(ccc1C(O)=O)[S](O)(=O)=O,-1.3157
417,B-418,"cyclohexanol, 4-(1,1-dimethylethyl)-","InChI=1S/C10H20O/c1-10(2,3)8-4-6-9(11)7-5-8/h8-9,11H,4-7H2,1-3H3",CCOQPGVQAWPUPE-UHFFFAOYSA-N,CC(C)(C)C1CCC(O)CC1,-3.1939
418,B-419,alpha-terpineol,"InChI=1S/C10H18O/c1-8-4-6-9(7-5-8)10(2,3)11/h4,9,11H,5-7H2,1-3H3/t9-/m0/s1",WUOACPNHFRMFPN-VIFPVBQESA-N,CC1=CC[C@@H](CC1)C(C)(C)O,-2.3369999999999997
419,B-420,"benzenesulfonyl chloride, 4-iodo-","InChI=1S/C6H4ClIO2S/c7-11(9,10)6-3-1-5(8)2-4-6/h1-4H",POXFXTSTVWDWIR-UHFFFAOYSA-N,Cl[S](=O)(=O)c1ccc(I)cc1,-4.2686
420,B-421,"benzenemethanamine, .alpha.-methyl-","InChI=1S/C8H11N/c1-7(9)8-5-3-2-4-6-8/h2-7H,9H2,1H3",RQEUFEKYXDPUSK-UHFFFAOYSA-N,CC(N)c1ccccc1,-0.4602
421,B-422,alpha-methylbenzyl alcohol,"InChI=1S/C8H10O/c1-7(9)8-5-3-2-4-6-8/h2-7,9H,1H3",WAPNOHKVXSQRPX-UHFFFAOYSA-N,CC(O)c1ccccc1,-1.7969
422,B-423,(dichloromethyl)benzene,"InChI=1S/C7H6Cl2/c8-7(9)6-4-2-1-3-5-6/h1-5,7H",CAHQGWAXKLQREW-UHFFFAOYSA-N,ClC(Cl)c1ccccc1,-2.8089999999999997
423,B-424,picolinic acid,"InChI=1S/C6H5NO2/c8-6(9)5-3-1-2-4-7-5/h1-4H,(H,8,9)",SIOXPEMLGUPBBT-UHFFFAOYSA-N,OC(=O)c1ccccn1,0.892
424,B-425,populin,"InChI=1S/C20H22O8/c21-10-13-8-4-5-9-14(13)27-20-18(24)17(23)16(22)15(28-20)11-26-19(25)12-6-2-1-3-7-12/h1-9,15-18,20-24H,10-11H2/t15-,16-,17+,18-,20-/m1/s1",HHSKNLJWHGXWPK-BFMVXSJESA-N,OCc1ccccc1O[C@@H]2O[C@H](COC(=O)c3ccccc3)[C@@H](O)[C@H](O)[C@H]2O,-2.8925
425,B-426,methyl gallate,"InChI=1S/C8H8O5/c1-13-8(12)4-2-5(9)7(11)6(10)3-4/h2-3,9-11H,1H3",FBSFWRHWHYMIOG-UHFFFAOYSA-N,COC(=O)c1cc(O)c(O)c(O)c1,-1.2399
426,B-427,"2,6-dichloro-4-nitroaniline","InChI=1S/C6H4Cl2N2O2/c7-4-1-3(10(11)12)2-5(8)6(4)9/h1-2H,9H2",BIXZHMJUSMUDOQ-UHFFFAOYSA-N,Nc1c(Cl)cc(cc1Cl)[N+]([O-])=O,-4.4709
427,B-428,"4-oxo-4h-pyran-2,6-dicarboxylic acid","InChI=1S/C7H4O6/c8-3-1-4(6(9)10)13-5(2-3)7(11)12/h1-2H,(H,9,10)(H,11,12)",PBAYDYUZOSNJGU-UHFFFAOYSA-N,OC(=O)C1=CC(=O)C=C(O1)C(O)=O,-1.1097
428,B-429,carvone,"InChI=1S/C10H14O/c1-7(2)9-5-4-8(3)10(11)6-9/h4,9H,1,5-6H2,2-3H3",ULDHMXUKGWMISQ-UHFFFAOYSA-N,CC(=C)C1CC=C(C)C(=O)C1,-2.0628
429,B-430,2-amino-4-nitrophenol,"InChI=1S/C6H6N2O3/c7-5-3-4(8(10)11)1-2-6(5)9/h1-3,9H,7H2",VLZVIIYRNMWPSN-UHFFFAOYSA-N,Nc1cc(ccc1O)[N+]([O-])=O,-2.2217
430,B-431,2-methoxy-5-nitroaniline,"InChI=1S/C7H8N2O3/c1-12-7-3-2-5(9(10)11)4-6(7)8/h2-4H,8H2,1H3",NIPDVSLAMPAWTP-UHFFFAOYSA-N,COc1ccc(cc1N)[N+]([O-])=O,-3.165
431,B-432,p-(sec-butyl)phenol,"InChI=1S/C10H14O/c1-3-8(2)9-4-6-10(11)7-5-9/h4-8,11H,3H2,1-2H3",ZUTYZAFDFLLILI-UHFFFAOYSA-N,CCC(C)c1ccc(O)cc1,-2.1945
432,B-433,p-menthane,"InChI=1S/C10H20/c1-8(2)10-6-4-9(3)5-7-10/h8-10H,4-7H2,1-3H3",CFJYNSNXFXLKNS-UHFFFAOYSA-N,CC1CCC(CC1)C(C)C,-5.6998
433,B-434,gamma-terpinene,"InChI=1S/C10H16/c1-8(2)10-6-4-9(3)5-7-10/h4,7-8H,5-6H2,1-3H3",YKFLAYDHMOASIY-UHFFFAOYSA-N,CC(C)C1=CCC(=CC1)C,-4.1958
434,B-435,4-nitrophenol,"InChI=1S/C6H5NO3/c8-6-3-1-5(2-4-6)7(9)10/h1-4,8H",BTJIUGUIPKRLHP-UHFFFAOYSA-N,Oc1ccc(cc1)[N+]([O-])=O,-1.0789
435,B-436,terephthalic acid,"InChI=1S/C8H6O4/c9-7(10)5-1-2-6(4-3-5)8(11)12/h1-4H,(H,9,10)(H,11,12)",KKEYFWRCBNTPAC-UHFFFAOYSA-N,OC(=O)c1ccc(cc1)C(O)=O,-4.0444
436,B-437,2-(diethylamino)-ethanol,"InChI=1S/C6H15NO/c1-3-7(4-2)5-6-8/h8H,3-6H2,1-2H3",BFSVOASYOCHEOV-UHFFFAOYSA-N,CCN(CC)CCO,0.9311
437,B-438,4-vinylcyclohexene,"InChI=1S/C8H12/c1-2-8-6-4-3-5-7-8/h2-4,8H,1,5-7H2",BBDKZWKEPDTENS-UHFFFAOYSA-N,C=CC1CCC=CC1,-3.3352
438,B-439,benzylamine,"InChI=1S/C7H9N/c8-6-7-4-2-1-3-5-7/h1-5H,6,8H2",WGQKYBSKWIADBV-UHFFFAOYSA-N,NCc1ccccc1,0.97
439,B-440,4-cyanopyridine,InChI=1S/C6H4N2/c7-5-6-1-3-8-4-2-6/h1-4H,GPHQHTOMRSGBNZ-UHFFFAOYSA-N,N#Cc1ccncc1,-0.4154
440,B-441,3-cyanopyridine,"InChI=1S/C6H4N2/c7-4-6-2-1-3-8-5-6/h1-3,5H",GZPHSAQLYPIAIN-UHFFFAOYSA-N,N#Cc1cccnc1,0.1128
441,B-442,3-pyridinemethanol,"InChI=1S/C6H7NO/c8-5-6-2-1-3-7-4-6/h1-4,8H,5H2",MVQVNTPHUGQQHK-UHFFFAOYSA-N,OCc1cccnc1,0.9621
442,B-443,cyclohexanone oxime,"InChI=1S/C6H11NO/c8-7-6-4-2-1-3-5-6/h8H,1-5H2",VEZUQRBDRNJBJY-UHFFFAOYSA-N,ON=C1CCCCC1,-0.7984
443,B-444,tetrahydropyran-2-methanol,"InChI=1S/C6H12O2/c7-5-6-3-1-2-4-8-6/h6-7H,1-5H2",ROTONRWJLXYJBD-UHFFFAOYSA-N,OCC1CCCCO1,0.9349
444,B-445,4-ethylmorpholine,"InChI=1S/C6H13NO/c1-2-7-3-5-8-6-4-7/h2-6H2,1H3",HVCNXQOWACZAFN-UHFFFAOYSA-N,CCN1CCOCC1,0.9386
445,B-446,m-methylstyrene,"InChI=1S/C9H10/c1-3-9-6-4-5-8(2)7-9/h3-7H,1H2,2H3",JZHGRUMIRATHIU-UHFFFAOYSA-N,Cc1cccc(C=C)c1,-3.1232
446,B-447,cloprop,"InChI=1S/C9H9ClO3/c1-6(9(11)12)13-8-4-2-3-7(10)5-8/h2-6H,1H3,(H,11,12)",YNTJKQDWYXUTLZ-UHFFFAOYSA-N,CC(Oc1cccc(Cl)c1)C(O)=O,-2.2232
447,B-448,"4,4'-methylenebis(2-chloroaniline)","InChI=1S/C13H12Cl2N2/c14-10-6-8(1-3-12(10)16)5-9-2-4-13(17)11(15)7-9/h1-4,6-7H,5,16-17H2",IBOFVQJTBBUKMU-UHFFFAOYSA-N,Nc1ccc(Cc2ccc(N)c(Cl)c2)cc1Cl,-4.2838
448,B-449,barban,"InChI=1S/C11H9Cl2NO2/c12-6-1-2-7-16-11(15)14-10-5-3-4-9(13)8-10/h3-5,8H,6-7H2,(H,14,15)",MCOQHIWZJUDQIC-UHFFFAOYSA-N,ClCC#CCOC(=O)Nc1cccc(Cl)c1,-4.3704
449,B-450,hyoscyamine,"InChI=1S/C17H23NO3/c1-18-13-7-8-14(18)10-15(9-13)21-17(20)16(11-19)12-5-3-2-4-6-12/h2-6,13-16,19H,7-11H2,1H3/t13-,14+,15?,16-/m1/s1",RKUNBYITZUJHSG-VFSICIBPSA-N,CN1[C@@H]2CC[C@H]1CC(C2)OC(=O)[C@H](CO)c3ccccc3,-1.91
450,B-451,4-hydroxydiphenylmethane,"InChI=1S/C13H12O/c14-13-8-6-12(7-9-13)10-11-4-2-1-3-5-11/h1-9,14H,10H2",HJSPWKGEPDZNLK-UHFFFAOYSA-N,Oc1ccc(Cc2ccccc2)cc1,-3.4009
451,B-452,di-(p-aminophenyl)methane,"InChI=1S/C13H14N2/c14-12-5-1-10(2-6-12)9-11-3-7-13(15)8-4-11/h1-8H,9,14-15H2",YBRVSVVVWCFQMG-UHFFFAOYSA-N,Nc1ccc(Cc2ccc(N)cc2)cc1,-2.2973
452,B-453,"n,n'-diphenylguanidine","InChI=1S/C13H13N3/c14-13(15-11-7-3-1-4-8-11)16-12-9-5-2-6-10-12/h1-10H,(H3,14,15,16)",OWRCNXZUPFZXOS-UHFFFAOYSA-N,NC(Nc1ccccc1)=Nc2ccccc2,-2.3248
453,B-454,"diphenylurea, sym","InChI=1S/C13H12N2O/c16-13(14-11-7-3-1-4-8-11)15-12-9-5-2-6-10-12/h1-10H,(H2,14,15,16)",GWEHVDNNLFDJLR-UHFFFAOYSA-N,O=C(Nc1ccccc1)Nc2ccccc2,-3.1508
454,B-455,"1,3,5-triethylbenzene","InChI=1S/C12H18/c1-4-10-7-11(5-2)9-12(6-3)8-10/h7-9H,4-6H2,1-3H3",WJYMPXJVHNDZHD-UHFFFAOYSA-N,CCc1cc(CC)cc(CC)c1,-7.0641
455,B-456,"methanediamine, n,n,n',n'-tetraethyl-","InChI=1S/C9H22N2/c1-5-10(6-2)9-11(7-3)8-4/h5-9H2,1-4H3",UNEXJVCWJSHFNN-UHFFFAOYSA-N,CCN(CC)CN(CC)CC,-0.1995
456,B-457,entprol,"InChI=1S/C14H32N2O4/c1-11(17)7-15(8-12(2)18)5-6-16(9-13(3)19)10-14(4)20/h11-14,17-20H,5-10H2,1-4H3",NSOXQYCFHDMMGV-UHFFFAOYSA-N,CC(O)CN(CCN(CC(C)O)CC(C)O)CC(C)O,0.534
457,B-458,triallylamine,"InChI=1S/C9H15N/c1-4-7-10(8-5-2)9-6-3/h4-6H,1-3,7-9H2",VPYJNCGUESNPMV-UHFFFAOYSA-N,C=CCN(CC=C)CC=C,-1.7395
458,B-459,triethanolamine,"InChI=1S/C6H15NO3/c8-4-1-7(2-5-9)3-6-10/h8-10H,1-6H2",GSEJCLTVZPLZKY-UHFFFAOYSA-N,OCCN(CCO)CCO,0.8263
459,B-460,2-dibutylaminoethanol,"InChI=1S/C10H23NO/c1-3-5-7-11(9-10-12)8-6-4-2/h12H,3-10H2,1-2H3",IWSZDQRGNFLMJS-UHFFFAOYSA-N,CCCCN(CCO)CCCC,-1.6367
460,B-461,tri n-butylamine,"InChI=1S/C12H27N/c1-4-7-10-13(11-8-5-2)12-9-6-3/h4-12H2,1-3H3",IMFACGCPASFAPR-UHFFFAOYSA-N,CCCCN(CCCC)CCCC,-3.1157
461,B-462,2-ethylhexyl acrylate,"InChI=1S/C11H20O2/c1-4-7-8-10(5-2)9-13-11(12)6-3/h6,10H,3-5,7-9H2,1-2H3",GOXQRTZXKQZDDN-UHFFFAOYSA-N,CCCCC(CC)COC(=O)C=C,-3.2655
462,B-463,di-2-ethylhexyl adipate,"InChI=1S/C22H42O4/c1-5-9-13-19(7-3)17-25-21(23)15-11-12-16-22(24)26-18-20(8-4)14-10-6-2/h19-20H,5-18H2,1-4H3",SAOKZLXYCUGLFA-UHFFFAOYSA-N,CCCCC(CC)COC(=O)CCCCC(=O)OCC(CC)CCCC,-5.6768
463,B-464,(2-bromoethyl)benzene,"InChI=1S/C8H9Br/c9-7-6-8-4-2-1-3-5-8/h1-5H,6-7H2",WMPPDTMATNBGJN-UHFFFAOYSA-N,BrCCc1ccccc1,-3.6757
464,B-465,n-methylbenzylamine,"InChI=1S/C8H11N/c1-9-7-8-5-3-2-4-6-8/h2-6,9H,7H2,1H3",RIWRFSMVIUAEBX-UHFFFAOYSA-N,CNCc1ccccc1,0.9166
465,B-466,n-ethylaniline,"InChI=1S/C8H11N/c1-2-9-8-6-4-3-5-7-8/h3-7,9H,2H2,1H3",OJGMBLNIHDZDGS-UHFFFAOYSA-N,CCNc1ccccc1,-1.7007
466,B-467,"n,n-dimethylbenzylamine","InChI=1S/C9H13N/c1-10(2)8-9-6-4-3-5-7-9/h3-7H,8H2,1-2H3",XXBDWLFCJWSEKW-UHFFFAOYSA-N,CN(C)Cc1ccccc1,-1.0518
467,B-468,4-methylacetanilide,"InChI=1S/C9H11NO/c1-7-3-5-9(6-4-7)10-8(2)11/h3-6H,1-2H3,(H,10,11)",YICAMJWHIUMFDI-UHFFFAOYSA-N,CC(=O)Nc1ccc(C)cc1,-2.0946
468,B-469,4-nitroacetanilide,"InChI=1S/C8H8N2O3/c1-6(11)9-7-2-4-8(5-3-7)10(12)13/h2-5H,1H3,(H,9,11)",NQRLPDFELNCFHW-UHFFFAOYSA-N,CC(=O)Nc1ccc(cc1)[N+]([O-])=O,-1.9132
469,B-470,thiacetazone,"InChI=1S/C10H12N4OS/c1-7(15)13-9-4-2-8(3-5-9)6-12-14-10(11)16/h2-6H,1H3,(H,13,15)(H3,11,14,16)/b12-6+",SRVJKTDHMYAMHA-WUXMJOGZSA-N,CC(=O)Nc1ccc(cc1)/C=N/NC(N)=S,-3.429
470,B-471,p-toluenesulfonic acid,"InChI=1S/C7H8O3S/c1-6-2-4-7(5-3-6)11(8,9)10/h2-5H,1H3,(H,8,9,10)",JOXIMZWYDAKGHI-UHFFFAOYSA-N,Cc1ccc(cc1)[S](O)(=O)=O,0.5564
471,B-472,"2-propenoic acid, 3-(4-methoxyphenyl)-, 2-ethoxy","InChI=1S/C14H18O4/c1-3-17-10-11-18-14(15)9-6-12-4-7-13(16-2)8-5-12/h4-9H,3,10-11H2,1-2H3/b9-6+",CMDKPGRTAQVGFQ-RMKNXTFCSA-N,CCOCCOC(=O)/C=C/c1ccc(OC)cc1,-2.6995
472,B-473,chlorphenesin,"InChI=1S/C9H11ClO3/c10-7-1-3-9(4-2-7)13-6-8(12)5-11/h1-4,8,11-12H,5-6H2",MXOAEAUPQDYUQM-UHFFFAOYSA-N,OCC(O)COc1ccc(Cl)cc1,-1.3067
473,B-474,p-nonylphenol,"InChI=1S/C15H24O/c1-2-3-4-5-6-7-8-9-14-10-12-15(16)13-11-14/h10-13,16H,2-9H2,1H3",IGFHQQFPSIBGKE-UHFFFAOYSA-N,CCCCCCCCCc1ccc(O)cc1,-4.498