,ID,Name,InChI,InChIKey,SMILES,Solubility
5049,C-400,"3,5-dinitrophenol","InChI=1S/C6H4N2O5/c9-6-2-4(7(10)11)1-5(3-6)8(12)13/h1-3,9H",UEMBNLWZFIWQFL-UHFFFAOYSA-N,OC1=CC(=CC(=C1)[N+]([O-])=O)[N+]([O-])=O,-1.66
5050,C-401,"propazine;  2-chloro-4,6-bis(isopropylamino)-1,3,5-triazine","InChI=1S/C9H16ClN5/c1-5(2)11-8-13-7(10)14-9(15-8)12-6(3)4/h5-6H,1-4H3,(H2,11,12,13,14,15)",WJNRPILHGGKWCK-UHFFFAOYSA-N,CC(C)NC1=NC(=NC(=N1)Cl)NC(C)C,-4.46
5051,C-402,"2,2'-dipyridyl;  2,2'-bipyridine;  2,2'-bipyridinyl",InChI=1S/C10H8N2/c1-3-7-11-9(5-1)10-6-2-4-8-12-10/h1-8H,ROFVEXUMMXZLPA-UHFFFAOYSA-N,C1=CC=C(N=C1)C2=NC=CC=C2,-1.42
5052,C-403,"2,4-dichlorophenoxyacetic  acid","InChI=1S/C8H6Cl2O3/c9-5-1-2-7(6(10)3-5)13-4-8(11)12/h1-3H,4H2,(H,11,12)",OVSKIKFHRZPJSS-UHFFFAOYSA-N,OC(=O)COC1=C(Cl)C=C(Cl)C=C1,-2.85
5053,C-404,"l-dopa;  3-(3,4-dihydroxyphenyl)-l-alanine;  levodopa","InChI=1S/C9H11NO4/c10-6(9(13)14)3-5-1-2-7(11)8(12)4-5/h1-2,4,6,11-12H,3,10H2,(H,13,14)",WTDRDQBEARUVNC-UHFFFAOYSA-N,NC(CC1=CC=C(O)C(=C1)O)C(O)=O,-1.82
5054,C-405,"altretamine;  hexamethylmelamine;  2,4,6-tris(dimethylamino)-1,3,5-triazine",InChI=1S/C9H18N6/c1-13(2)7-10-8(14(3)4)12-9(11-7)15(5)6/h1-6H3,UUVWYPNAQBNQJQ-UHFFFAOYSA-N,CN(C)C1=NC(=NC(=N1)N(C)C)N(C)C,-3.38
5055,C-406,triforine,"InChI=1S/C10H14Cl6N4O2/c11-9(12,13)7(17-5-21)19-1-2-20(4-3-19)8(18-6-22)10(14,15)16/h5-8H,1-4H2,(H,17,21)(H,18,22)",RROQIUMZODEXOR-UHFFFAOYSA-N,ClC(Cl)(Cl)C(NC=O)N1CCN(CC1)C(NC=O)C(Cl)(Cl)Cl,-4.16
5056,C-407,"trietazine;  2-chloro-4-diethylamino-6-ethylamino-1,3,5-triazine","InChI=1S/C9H16ClN5/c1-4-11-8-12-7(10)13-9(14-8)15(5-2)6-3/h4-6H2,1-3H3,(H,11,12,13,14)",HFBWPRKWDIRYNX-UHFFFAOYSA-N,CCNC1=NC(=NC(=N1)Cl)N(CC)CC,-4.06
5057,C-408,"2,3,4,5-tetrachloroanisole;  1-methoxy-2,3,4,5-tetrachlorobenzene","InChI=1S/C7H4Cl4O/c1-12-4-2-3(8)5(9)7(11)6(4)10/h2H,1H3",FUUHMSUPRUNWRQ-UHFFFAOYSA-N,COC1=C(Cl)C(=C(Cl)C(=C1)Cl)Cl,-5.26
5058,C-409,"2,3,4,6-tetrachloroanisole;  1-methoxy-2,3,4,6-tetrachlorobenzene","InChI=1S/C7H4Cl4O/c1-12-7-4(9)2-3(8)5(10)6(7)11/h2H,1H3",ITXDBGLYYSJNPK-UHFFFAOYSA-N,COC1=C(Cl)C(=C(Cl)C=C1Cl)Cl,-5.15
5059,C-410,"1,3,5-tribromobenzene",InChI=1S/C6H3Br3/c7-4-1-5(8)3-6(9)2-4/h1-3H,YWDUZLFWHVQCHY-UHFFFAOYSA-N,BrC1=CC(=CC(=C1)Br)Br,-5.6
5060,C-411,chlorzoxazone,"InChI=1S/C7H4ClNO2/c8-4-1-2-6-5(3-4)9-7(10)11-6/h1-3H,(H,9,10)",TZFWDZFKRBELIQ-UHFFFAOYSA-N,ClC1=CC2=C(OC(=O)N2)C=C1,-2.83
5061,C-412,monolinuron;  3-(4-chlorophenyl)-1-methoxy-1-methylurea,"InChI=1S/C9H11ClN2O2/c1-12(14-2)9(13)11-8-5-3-7(10)4-6-8/h3-6H,1-2H3,(H,11,13)",LKJPSUCKSLORMF-UHFFFAOYSA-N,CON(C)C(=O)NC1=CC=C(Cl)C=C1,-2.47
5062,C-413,"diuron;  3-(3,4-dichlorophenyl)-1,1-dimethylurea","InChI=1S/C9H10Cl2N2O/c1-13(2)9(14)12-6-3-4-7(10)8(11)5-6/h3-5H,1-2H3,(H,12,14)",XMTQQYYKAHVGBJ-UHFFFAOYSA-N,CN(C)C(=O)NC1=CC(=C(Cl)C=C1)Cl,-3.77
5063,C-414,"1,2,4-tribromobenzene",InChI=1S/C6H3Br3/c7-4-1-2-5(8)6(9)3-4/h1-3H,FWAJPSIPOULHHH-UHFFFAOYSA-N,BrC1=CC(=C(Br)C=C1)Br,-4.81
5064,C-415,4-chloro-3-nitrobenzoic  acid,"InChI=1S/C7H4ClNO4/c8-5-2-1-4(7(10)11)3-6(5)9(12)13/h1-3H,(H,10,11)",DFXQXFGFOLXAPO-UHFFFAOYSA-N,OC(=O)C1=CC=C(Cl)C(=C1)[N+]([O-])=O,-2.76
5065,C-416,"4-(2,4-dichlorophenoxy)butanoic  acid;  2,4-db","InChI=1S/C10H10Cl2O3/c11-7-3-4-9(8(12)6-7)15-5-1-2-10(13)14/h3-4,6H,1-2,5H2,(H,13,14)",YIVXMZJTEQBPQO-UHFFFAOYSA-N,OC(=O)CCCOC1=C(Cl)C=C(Cl)C=C1,-3.57
5066,C-417,5-chloro-2-nitrobenzoic  acid,"InChI=1S/C7H4ClNO4/c8-4-1-2-6(9(12)13)5(3-4)7(10)11/h1-3H,(H,10,11)",ZKUYSJHXBFFGPU-UHFFFAOYSA-N,OC(=O)C1=C(C=CC(=C1)Cl)[N+]([O-])=O,-1.32
5067,C-418,diphenylamine,"InChI=1S/C12H11N/c1-3-7-11(8-4-1)13-12-9-5-2-6-10-12/h1-10,13H",DMBHHRLKUKUOEG-UHFFFAOYSA-N,N(C1=CC=CC=C1)C2=CC=CC=C2,-2.75
5068,C-419,methocarbamol;  3-(2-methoxyphenoxy)-2-hydroxypropyl 1-carbamate,"InChI=1S/C11H15NO5/c1-15-9-4-2-3-5-10(9)16-6-8(13)7-17-11(12)14/h2-5,8,13H,6-7H2,1H3,(H2,12,14)",GNXFOGHNGIVQEH-UHFFFAOYSA-N,COC1=CC=CC=C1OCC(O)COC(N)=O,-1.53
5069,C-420,cholic  acid,"InChI=1S/C24H40O5/c1-13(4-7-21(28)29)16-5-6-17-22-18(12-20(27)24(16,17)3)23(2)9-8-15(25)10-14(23)11-19(22)26/h13-20,22,25-27H,4-12H2,1-3H3,(H,28,29)",BHQCQFFYRZLCQQ-UHFFFAOYSA-N,CC(CCC(O)=O)C1CCC2C3C(O)CC4CC(O)CCC4(C)C3CC(O)C12C,-3.63
5070,C-421,lidocaine;  lignocaine;  xylocaine,"InChI=1S/C14H22N2O/c1-5-16(6-2)10-13(17)15-14-11(3)8-7-9-12(14)4/h7-9H,5-6,10H2,1-4H3,(H,15,17)",NNJVILVZKWQKPM-UHFFFAOYSA-N,CCN(CC)CC(=O)NC1=C(C)C=CC=C1C,-1.79
5071,C-422,alclofenac,"InChI=1S/C11H11ClO3/c1-2-5-15-10-4-3-8(6-9(10)12)7-11(13)14/h2-4,6H,1,5,7H2,(H,13,14)",ARHWPKZXBHOEEE-UHFFFAOYSA-N,OC(=O)CC1=CC(=C(OCC=C)C=C1)Cl,-3.13
5072,C-423,"1,4,5-trimethylnaphthalene","InChI=1S/C13H14/c1-9-7-8-11(3)13-10(2)5-4-6-12(9)13/h4-8H,1-3H3",FSAWRQYDMHSDRN-UHFFFAOYSA-N,CC1=CC=C(C)C2=C1C=CC=C2C,-4.92
5073,C-424,"terbacil; 3-tert-butyl-5-chloro-6-methylpyrimidin-2,4-dione","InChI=1S/C9H13ClN2O2/c1-5-6(10)7(13)12(8(14)11-5)9(2,3)4/h1-4H3,(H,11,14)",NBQCNZYJJMBDKY-UHFFFAOYSA-N,CC1=C(Cl)C(=O)N(C(=O)N1)C(C)(C)C,-2.49
5074,C-425,fluometuron,"InChI=1S/C10H11F3N2O/c1-15(2)9(16)14-8-5-3-4-7(6-8)10(11,12)13/h3-6H,1-2H3,(H,14,16)",RZILCCPWPBTYDO-UHFFFAOYSA-N,CN(C)C(=O)NC1=CC=CC(=C1)C(F)(F)F,-3.46
5075,C-426,"glutethimide;  3-ethyl-3-phenyl-2,6-piperidinedione","InChI=1S/C13H15NO2/c1-2-13(10-6-4-3-5-7-10)9-8-11(15)14-12(13)16/h3-7H,2,8-9H2,1H3,(H,14,15,16)",JMBQKKAJIKAWKF-UHFFFAOYSA-N,CCC1(CCC(=O)NC1=O)C2=CC=CC=C2,-2.34
5076,C-427,3-chloro-2-nitrobenzoic  acid,"InChI=1S/C7H4ClNO4/c8-5-3-1-2-4(7(10)11)6(5)9(12)13/h1-3H,(H,10,11)",VCHSXYHBMFKRBK-UHFFFAOYSA-N,OC(=O)C1=C(C(=CC=C1)Cl)[N+]([O-])=O,-2.63
5077,C-428,"primidone;  5-ethyl-5-phenylpyrimidine-4,6-dione","InChI=1S/C12H14N2O2/c1-2-12(9-6-4-3-5-7-9)10(15)13-8-14-11(12)16/h3-7H,2,8H2,1H3,(H,13,15)(H,14,16)",DQMZLTXERSFNPB-UHFFFAOYSA-N,CCC1(C(=O)NCNC1=O)C2=CC=CC=C2,-2.65
5078,C-429,"1,5-dihydroxynaphthalene;  1,5-naphthalenediol","InChI=1S/C10H8O2/c11-9-5-1-3-7-8(9)4-2-6-10(7)12/h1-6,11-12H",BOKGTLAJQHTOKE-UHFFFAOYSA-N,OC1=CC=CC2=C1C=CC=C2O,-2.92
5079,C-430,hydralazine;  1-hydrazinophthalazine,"InChI=1S/C8H8N4/c9-11-8-7-4-2-1-3-6(7)5-10-12-8/h1-5H,9H2,(H,11,12)",RPTUSVTUFVMDQK-UHFFFAOYSA-N,NNC1=NN=CC2=C1C=CC=C2,-2.6
5080,C-431,"dicamba;  2-methoxy-3,6-dichlorobenzoic acid","InChI=1S/C8H6Cl2O3/c1-13-7-5(10)3-2-4(9)6(7)8(11)12/h2-3H,1H3,(H,11,12)",IWEDIXLBFLAXBO-UHFFFAOYSA-N,COC1=C(C(O)=O)C(=CC=C1Cl)Cl,-1.7
5081,C-432,diphenyl  ether;  phenyl  ether,InChI=1S/C12H10O/c1-3-7-11(8-4-1)13-12-9-5-2-6-10-12/h1-10H,USIUVYZYUHIAEV-UHFFFAOYSA-N,O(C1=CC=CC=C1)C2=CC=CC=C2,-3.98
5082,C-433,11-alpha-hydroxyprogesterone,"InChI=1S/C21H30O3/c1-12(22)16-6-7-17-15-5-4-13-10-14(23)8-9-20(13,2)19(15)18(24)11-21(16,17)3/h10,15-19,24H,4-9,11H2,1-3H3",BFZHCUBIASXHPK-UHFFFAOYSA-N,CC(=O)C1CCC2C3CCC4=CC(=O)CCC4(C)C3C(O)CC12C,-3.82
5083,C-434,"metoxuron;  3-(3-chloro-4-methoxyphenyl)-1,1-dimethylurea","InChI=1S/C10H13ClN2O2/c1-13(2)10(14)12-7-4-5-9(15-3)8(11)6-7/h4-6H,1-3H3,(H,12,14)",DSRNRYQBBJQVCW-UHFFFAOYSA-N,COC1=C(Cl)C=C(NC(=O)N(C)C)C=C1,-2.53
5084,C-435,barban;  (3-chlorophenyl)carbamic acid 4-chloro-2-butynyl ester,"InChI=1S/C11H9Cl2NO2/c12-6-1-2-7-16-11(15)14-10-5-3-4-9(13)8-10/h3-5,8H,6-7H2,(H,14,15)",MCOQHIWZJUDQIC-UHFFFAOYSA-N,ClCC#CCOC(=O)NC1=CC(=CC=C1)Cl,-4.24
5085,C-436,"3,4,5-trichloroveratrole;  1,2-dimethoxy-3,4,5-trichlorobenzene","InChI=1S/C8H7Cl3O2/c1-12-5-3-4(9)6(10)7(11)8(5)13-2/h3H,1-2H3",VKNITLPENCJQOP-UHFFFAOYSA-N,COC1=C(OC)C(=C(Cl)C(=C1)Cl)Cl,-4.37
5086,C-437,testosterone  propionate,"InChI=1S/C22H32O3/c1-4-20(24)25-19-8-7-17-16-6-5-14-13-15(23)9-11-21(14,2)18(16)10-12-22(17,19)3/h13,16-19H,4-12H2,1-3H3",PDMMFKSKQVNJMI-UHFFFAOYSA-N,CCC(=O)OC1CCC2C3CCC4=CC(=O)CCC4(C)C3CCC12C,-5.37
5087,C-438,"busulfan;  busulphan;  1,4-di(methylsulfonyloxy)butane","InChI=1S/C6H14O6S2/c1-13(7,8)11-5-3-4-6-12-14(2,9)10/h3-6H2,1-2H3",COVZYZSDYWQREU-UHFFFAOYSA-N,C[S](=O)(=O)OCCCCO[S](C)(=O)=O,-2.27
5088,C-439,"ametryne;  2-ethylamino-4-isopropylamino-6-methylthio-1,3,5-triazine","InChI=1S/C9H17N5S/c1-5-10-7-12-8(11-6(2)3)14-9(13-7)15-4/h6H,5H2,1-4H3,(H2,10,11,12,13,14)",RQVYBGPQFYCBGX-UHFFFAOYSA-N,CCNC1=NC(=NC(=N1)SC)NC(C)C,-3.04
5089,C-440,"stilbene (trans);  1,2-diphenylethylene (trans);  1,2-diphenylethene (trans)",InChI=1S/C14H12/c1-3-7-13(8-4-1)11-12-14-9-5-2-6-10-14/h1-12H/b12-11+,PJANXHGTPQOBST-VAWYXSNFSA-N,C1=CC=C(C=C1)\C=C\C2=CC=CC=C2,-5.93
5090,C-441,4-phenylphenol;  4-hydroxybiphenyl,"InChI=1S/C12H10O/c13-12-8-6-11(7-9-12)10-4-2-1-3-5-10/h1-9,13H",YXVFYQXJAXKLAK-UHFFFAOYSA-N,OC1=CC=C(C=C1)C2=CC=CC=C2,-3.48
5091,C-442,"chlorfenac; 2,3,6-trichlorophenylacetic  acid","InChI=1S/C8H5Cl3O2/c9-5-1-2-6(10)8(11)4(5)3-7(12)13/h1-2H,3H2,(H,12,13)",QZXCCPZJCKEPSA-UHFFFAOYSA-N,OC(=O)CC1=C(Cl)C=CC(=C1Cl)Cl,-3.08
5092,C-443,deoxycorticosterone,"InChI=1S/C21H30O3/c1-20-9-7-14(23)11-13(20)3-4-15-16-5-6-18(19(24)12-22)21(16,2)10-8-17(15)20/h11,15-18,22H,3-10,12H2,1-2H3",ZESRJSPZRDMNHY-UHFFFAOYSA-N,CC12CCC3C(CCC4=CC(=O)CCC34C)C1CCC2C(=O)CO,-3.45
5093,C-444,procyclidine,"InChI=1S/C19H29NO/c21-19(17-9-3-1-4-10-17,18-11-5-2-6-12-18)13-16-20-14-7-8-15-20/h1,3-4,9-10,18,21H,2,5-8,11-16H2",WYDUSKDSKCASEF-UHFFFAOYSA-N,OC(CCN1CCCC1)(C2CCCCC2)C3=CC=CC=C3,-4.7
5094,C-445,"cyanazine;  bladex;  2-chloro-4-ethylamino-6-(1-cyano-1-methyl)ethylamino-1,3,5-triazine","InChI=1S/C9H13ClN6/c1-4-12-7-13-6(10)14-8(15-7)16-9(2,3)5-11/h4H2,1-3H3,(H2,12,13,14,15,16)",MZZBPDKVEFVLFF-UHFFFAOYSA-N,CCNC1=NC(=NC(=N1)NC(C)(C)C#N)Cl,-3.15
5095,C-446,"4,6-dinitro-2-cresol","InChI=1S/C7H6N2O5/c1-4-2-5(8(11)12)3-6(7(4)10)9(13)14/h2-3,10H,1H3",ZXVONLUNISGICL-UHFFFAOYSA-N,CC1=C(O)C(=CC(=C1)[N+]([O-])=O)[N+]([O-])=O,-3.2
5096,C-447,atenolol,"InChI=1S/C14H22N2O3/c1-10(2)16-8-12(17)9-19-13-5-3-11(4-6-13)7-14(15)18/h3-6,10,12,16-17H,7-9H2,1-2H3,(H2,15,18)",METKIMKYRPQLGS-UHFFFAOYSA-N,CC(C)NCC(O)COC1=CC=C(CC(N)=O)C=C1,-0.75
5097,C-448,cimetidine,"InChI=1S/C10H16N6S/c1-8-9(16-7-15-8)5-17-4-3-13-10(12-2)14-6-11/h7H,3-5H2,1-2H3,(H,15,16)(H2,12,13,14)",AQIXAKUUQRKLND-UHFFFAOYSA-N,CNC(NCCSCC1=C(C)[NH]C=N1)=NC#N,-1.43
5098,C-449,2-phenylphenol; 2-hydroxybiphenyl,"InChI=1S/C12H10O/c13-12-9-5-4-8-11(12)10-6-2-1-3-7-10/h1-9,13H",LLEMOWNGBBNAJR-UHFFFAOYSA-N,OC1=CC=CC=C1C2=CC=CC=C2,-2.39
5099,C-450,norethindrone  acetate;  norethisterone acetate,"InChI=1S/C22H28O3/c1-4-22(25-14(2)23)12-10-20-19-7-5-15-13-16(24)6-8-17(15)18(19)9-11-21(20,22)3/h1,13,17-20H,5-12H2,2-3H3",IMONTRJLAWHYGT-UHFFFAOYSA-N,CC(=O)OC1(CCC2C3CCC4=CC(=O)CCC4C3CCC12C)C#C,-4.87
5100,C-451,carbofuran,"InChI=1S/C12H15NO3/c1-12(2)7-8-5-4-6-9(10(8)16-12)15-11(14)13-3/h4-6H,7H2,1-3H3,(H,13,14)",DUEPRVBVGDRKAG-UHFFFAOYSA-N,CNC(=O)OC1=C2OC(C)(C)CC2=CC=C1,-2.42
5101,C-452,mcpa-thioethyl,"InChI=1S/C11H13ClO2S/c1-3-15-11(13)7-14-10-5-4-9(12)6-8(10)2/h4-6H,3,7H2,1-2H3",AZFKQCNGMSSWDS-UHFFFAOYSA-N,CCSC(=O)COC1=C(C)C=C(Cl)C=C1,-5.03
5102,C-453,"2-(2,4-dichlorophenoxy)propanoic acid;  2,4-dp;  dichlorprop","InChI=1S/C9H8Cl2O3/c1-5(9(12)13)14-8-3-2-6(10)4-7(8)11/h2-5H,1H3,(H,12,13)",MZHCENGPTKEIGP-UHFFFAOYSA-N,CC(OC1=C(Cl)C=C(Cl)C=C1)C(O)=O,-2.45
5103,C-454,"2,6-dibromo-4-cyanophenol; bromoxynil","InChI=1S/C7H3Br2NO/c8-5-1-4(3-10)2-6(9)7(5)11/h1-2,11H",UPMXNNIRAGDFEH-UHFFFAOYSA-N,OC1=C(Br)C=C(C=C1Br)C#N,-3.33
5104,C-455,azobenzene,InChI=1S/C12H10N2/c1-3-7-11(8-4-1)13-14-12-9-5-2-6-10-12/h1-10H,DMLAVOWQYNRWNQ-UHFFFAOYSA-N,C1=CC=C(C=C1)N=NC2=CC=CC=C2,-4.45
5105,C-456,"1,2-diphenylhydrazine;  hydrazobenzene","InChI=1S/C12H12N2/c1-3-7-11(8-4-1)13-14-12-9-5-2-6-10-12/h1-10,13-14H",YBQZXXMEJHZYMB-UHFFFAOYSA-N,N(NC1=CC=CC=C1)C2=CC=CC=C2,-2.92
5106,C-457,fluorene,"InChI=1S/C13H10/c1-3-7-12-10(5-1)9-11-6-2-4-8-13(11)12/h1-8H,9H2",NIHNNTQXNPWCJQ-UHFFFAOYSA-N,C1C2=C(C=CC=C2)C3=C1C=CC=C3,-4.55
5107,C-458,2-naphthoic  acid,"InChI=1S/C11H8O2/c12-11(13)10-6-5-8-3-1-2-4-9(8)7-10/h1-7H,(H,12,13)",UOBYKYZJUGYBDK-UHFFFAOYSA-N,OC(=O)C1=CC2=CC=CC=C2C=C1,-3.93
5108,C-459,pentachlorophenol,InChI=1S/C6HCl5O/c7-1-2(8)4(10)6(12)5(11)3(1)9/h12H,IZUPBVBPLAPZRR-UHFFFAOYSA-N,OC1=C(Cl)C(=C(Cl)C(=C1Cl)Cl)Cl,-4.21
5109,C-460,2-mercaptobenzothiazole,"InChI=1S/C7H5NS2/c9-7-8-5-3-1-2-4-6(5)10-7/h1-4H,(H,8,9)",YXIWHUQXZSMYRE-UHFFFAOYSA-N,SC1=NC2=C(S1)C=CC=C2,-3.15
5110,C-461,propyzamide;  pronamid;  kerb,"InChI=1S/C12H11Cl2NO/c1-4-12(2,3)15-11(16)8-5-9(13)7-10(14)6-8/h1,5-7H,2-3H3,(H,15,16)",PHNUZKMIPFFYSO-UHFFFAOYSA-N,CC(C)(NC(=O)C1=CC(=CC(=C1)Cl)Cl)C#C,-4.23
5111,C-462,"2,7-dichloronaphthalene",InChI=1S/C10H6Cl2/c11-9-3-1-7-2-4-10(12)6-8(7)5-9/h1-6H,DWBQZSYTSNYEEJ-UHFFFAOYSA-N,ClC1=CC2=C(C=C1)C=CC(=C2)Cl,-5.92
5112,C-463,trihexyphenidyl,"InChI=1S/C20H31NO/c22-20(18-10-4-1-5-11-18,19-12-6-2-7-13-19)14-17-21-15-8-3-9-16-21/h1,4-5,10-11,19,22H,2-3,6-9,12-17H2",HWHLPVGTWGOCJO-UHFFFAOYSA-N,OC(CCN1CCCCC1)(C2CCCCC2)C3=CC=CC=C3,-5.2
5113,C-464,4-chlorobiphenyl,InChI=1S/C12H9Cl/c13-12-8-6-11(7-9-12)10-4-2-1-3-5-10/h1-9H,FPWNLURCHDRMHC-UHFFFAOYSA-N,ClC1=CC=C(C=C1)C2=CC=CC=C2,-5.22
5114,C-465,hexachlorobenzene,InChI=1S/C6Cl6/c7-1-2(8)4(10)6(12)5(11)3(1)9,CKAPSXZOOQJIBF-UHFFFAOYSA-N,ClC1=C(Cl)C(=C(Cl)C(=C1Cl)Cl)Cl,-6.78
5115,C-466,1-naphthoic  acid,"InChI=1S/C11H8O2/c12-11(13)10-7-3-5-8-4-1-2-6-9(8)10/h1-7H,(H,12,13)",LNETULKMXZVUST-UHFFFAOYSA-N,OC(=O)C1=CC=CC2=CC=CC=C12,-3.3
5116,C-467,"uric  acid;  purine-2,6,8-trione","InChI=1S/C5H4N4O3/c10-3-1-2(7-4(11)6-1)8-5(12)9-3/h(H4,6,7,8,9,10,11,12)",LEHOTFFKMJEONL-UHFFFAOYSA-N,O=C1NC(=O)C2=C(N1)NC(=O)N2,-3.4
5117,C-468,"2,3-dichloronaphthalene",InChI=1S/C10H6Cl2/c11-9-5-7-3-1-2-4-8(7)6-10(9)12/h1-6H,SKGXUFZRYNGFJS-UHFFFAOYSA-N,ClC1=CC2=C(C=CC=C2)C=C1Cl,-5.36
5118,C-469,"prometryn;  4,6-bis(isopropylamino)-2-methylthio-1,3,5-triazine","InChI=1S/C10H19N5S/c1-6(2)11-8-13-9(12-7(3)4)15-10(14-8)16-5/h6-7H,1-5H3,(H2,11,12,13,14,15)",AAEVYOVXGOFMJO-UHFFFAOYSA-N,CSC1=NC(=NC(=N1)NC(C)C)NC(C)C,-4.1
5119,C-470,"terbutryn;  2-tert-butylamino-4-ethylamino-6-methylthio-1,3,5-triazine","InChI=1S/C10H19N5S/c1-6-11-7-12-8(15-10(2,3)4)14-9(13-7)16-5/h6H2,1-5H3,(H2,11,12,13,14,15)",IROINLKCQGIITA-UHFFFAOYSA-N,CCNC1=NC(=NC(=N1)SC)NC(C)(C)C,-4.0
5120,C-471,"1,7-dichloronaphthalene",InChI=1S/C10H6Cl2/c11-8-5-4-7-2-1-3-10(12)9(7)6-8/h1-6H,VQBIYCQGHAHVPN-UHFFFAOYSA-N,ClC1=CC2=C(C=CC=C2Cl)C=C1,-5.92
5121,C-472,salicin,"InChI=1S/C13H18O7/c14-5-7-3-1-2-4-8(7)19-13-12(18)11(17)10(16)9(6-15)20-13/h1-4,9-18H,5-6H2",NGFMICBWJRZIBI-UHFFFAOYSA-N,OCC1OC(OC2=CC=CC=C2CO)C(O)C(O)C1O,-0.85
5122,C-473,"1,2-dichloronaphthalene",InChI=1S/C10H6Cl2/c11-9-6-5-7-3-1-2-4-8(7)10(9)12/h1-6H,MOXLHAPKZWTHEX-UHFFFAOYSA-N,ClC1=C(Cl)C2=C(C=CC=C2)C=C1,-6.16
5123,C-474,2-nitroso-1-naphthol;  1-hydroxy-2-nitrosonaphthalene,"InChI=1S/C10H7NO2/c12-10-8-4-2-1-3-7(8)5-6-9(10)11-13/h1-6,12H",SYUYTOYKQOAVDW-UHFFFAOYSA-N,OC1=C(C=CC2=C1C=CC=C2)N=O,-2.54
5124,C-475,1-nitronaphthalene,InChI=1S/C10H7NO2/c12-11(13)10-7-3-5-8-4-1-2-6-9(8)10/h1-7H,RJKGJBPXVHTNJL-UHFFFAOYSA-N,[O-][N+](=O)C1=CC=CC2=C1C=CC=C2,-4.28
5125,C-476,"4-amino-3,5,6-trichloropicolinic  acid;  picloram","InChI=1S/C6H3Cl3N2O2/c7-1-3(10)2(8)5(9)11-4(1)6(12)13/h(H2,10,11)(H,12,13)",NQQVFXUMIDALNH-UHFFFAOYSA-N,NC1=C(Cl)C(=NC(=C1Cl)C(O)=O)Cl,-2.73
5126,C-477,"1,5-dichloronaphthalene",InChI=1S/C10H6Cl2/c11-9-5-1-3-7-8(9)4-2-6-10(7)12/h1-6H,ZBQZXTBAGBTUAD-UHFFFAOYSA-N,ClC1=CC=CC2=C1C=CC=C2Cl,-5.7
5127,C-478,"1,4-dichloronaphthalene",InChI=1S/C10H6Cl2/c11-9-5-6-10(12)8-4-2-1-3-7(8)9/h1-6H,JDPKCYMVSKDOGS-UHFFFAOYSA-N,ClC1=CC=C(Cl)C2=C1C=CC=C2,-5.8
5128,C-479,1-nitroso-2-naphthol;  2-hydroxy-1-nitrosonaphthalene,"InChI=1S/C10H7NO2/c12-9-6-5-7-3-1-2-4-8(7)10(9)11-13/h1-6,12H",YXAOOTNFFAQIPZ-UHFFFAOYSA-N,OC1=C(N=O)C2=C(C=CC=C2)C=C1,-2.24
5129,C-480,2-chlorobiphenyl,InChI=1S/C12H9Cl/c13-12-9-5-4-8-11(12)10-6-2-1-3-7-10/h1-9H,LAXBNTIAOJWAOP-UHFFFAOYSA-N,ClC1=C(C=CC=C1)C2=CC=CC=C2,-4.54
5130,C-481,medrogestone,"InChI=1S/C23H32O2/c1-14-12-17-18(21(3)9-6-16(25)13-20(14)21)7-11-23(5)19(17)8-10-22(23,4)15(2)24/h12-13,17-19H,6-11H2,1-5H3",HCFSGRMEEXUOSS-UHFFFAOYSA-N,CC(=O)C1(C)CCC2C3C=C(C)C4=CC(=O)CCC4(C)C3CCC12C,-5.35
5131,C-482,"1,8-dichloronaphthalene",InChI=1S/C10H6Cl2/c11-8-5-1-3-7-4-2-6-9(12)10(7)8/h1-6H,ADRYPAGQXFMVFP-UHFFFAOYSA-N,ClC1=CC=CC2=C1C(=CC=C2)Cl,-5.8
5132,C-483,2-naphthyl  isothiocyanate; 2-isothiocyanatonaphthalene,InChI=1S/C11H7NS/c13-8-12-11-6-5-9-3-1-2-4-10(9)7-11/h1-7H,RTMXPNYHPHIDHX-UHFFFAOYSA-N,S=C=NC1=CC2=CC=CC=C2C=C1,-4.44
5133,C-484,tetrachloroguaiacol;  2-methoxytetrachlorophenol,"InChI=1S/C7H4Cl4O2/c1-13-7-5(11)3(9)2(8)4(10)6(7)12/h12H,1H3",YZZVKLJKDFFSFL-UHFFFAOYSA-N,COC1=C(Cl)C(=C(Cl)C(=C1O)Cl)Cl,-4.8
5134,C-485,5-methyl-5-phenylbarbituric  acid,"InChI=1S/C11H10N2O3/c1-11(7-5-3-2-4-6-7)8(14)12-10(16)13-9(11)15/h2-6H,1H3,(H2,12,13,14,15,16)",LSAOZCAKUIANSQ-UHFFFAOYSA-N,CC1(C(=O)NC(=O)NC1=O)C2=CC=CC=C2,-2.38
5135,C-486,corticosterone,"InChI=1S/C21H30O4/c1-20-8-7-13(23)9-12(20)3-4-14-15-5-6-16(18(25)11-22)21(15,2)10-17(24)19(14)20/h9,14-17,19,22,24H,3-8,10-11H2,1-2H3",OMFXVFTZEKFJBZ-UHFFFAOYSA-N,CC12CC(O)C3C(CCC4=CC(=O)CCC34C)C1CCC2C(=O)CO,-3.24
5136,C-487,lenacil,"InChI=1S/C13H18N2O2/c16-12-10-7-4-8-11(10)14-13(17)15(12)9-5-2-1-3-6-9/h9H,1-8H2,(H,14,17)",ZTMKADLOSYKWCA-UHFFFAOYSA-N,O=C1NC2=C(CCC2)C(=O)N1C3CCCCC3,-4.59
5137,C-488,"neburon;  1-methyl-1-butyl-3-(3,4-dichlorophenyl)urea","InChI=1S/C12H16Cl2N2O/c1-3-4-7-16(2)12(17)15-9-5-6-10(13)11(14)8-9/h5-6,8H,3-4,7H2,1-2H3,(H,15,17)",CCGPUGMWYLICGL-UHFFFAOYSA-N,CCCCN(C)C(=O)NC1=CC=C(Cl)C(=C1)Cl,-4.77
5138,C-489,"tebuthiuron; 2-tert-butyl-5-(1,3-dimethyl)ureido-1,3,4-thiadiazole; 1-(5-tert-butyl-1,3,4-thiadiazol-2-yl)-1,3-dimethylurea","InChI=1S/C9H16N4OS/c1-9(2,3)6-11-12-8(15-6)13(5)7(14)10-4/h1-5H3,(H,10,14)",HBPDKDSFLXWOAE-UHFFFAOYSA-N,CNC(=O)N(C)C1=NN=C(S1)C(C)(C)C,-1.96
5139,C-490,bendiocarb,"InChI=1S/C11H13NO4/c1-11(2)15-8-6-4-5-7(9(8)16-11)14-10(13)12-3/h4-6H,1-3H3,(H,12,13)",XEGGRYVFLWGFHI-UHFFFAOYSA-N,CNC(=O)OC1=C2OC(C)(C)OC2=CC=C1,-2.93
5140,C-491,"2,4,6-tribromophenol","InChI=1S/C6H3Br3O/c7-3-1-4(8)6(10)5(9)2-3/h1-2,10H",BSWWXRFVMJHFBN-UHFFFAOYSA-N,OC1=C(Br)C=C(Br)C=C1Br,-3.73
5141,C-492,"2,4,5-trichlorophenoxyacetic  acid","InChI=1S/C8H5Cl3O3/c9-4-1-6(11)7(2-5(4)10)14-3-8(12)13/h1-2H,3H2,(H,12,13)",SMYMJHWAQXWPDB-UHFFFAOYSA-N,OC(=O)COC1=C(Cl)C=C(Cl)C(=C1)Cl,-2.98
5142,C-493,benzophenone,InChI=1S/C13H10O/c14-13(11-7-3-1-4-8-11)12-9-5-2-6-10-12/h1-10H,RWCCWEUUXYIKHB-UHFFFAOYSA-N,O=C(C1=CC=CC=C1)C2=CC=CC=C2,-3.12
5143,C-494,"2,3,4-trichlorophenoxyacetic  acid","InChI=1S/C8H5Cl3O3/c9-4-1-2-5(8(11)7(4)10)14-3-6(12)13/h1-2H,3H2,(H,12,13)",QMSFHWZMMPPKIR-UHFFFAOYSA-N,OC(=O)COC1=C(Cl)C(=C(Cl)C=C1)Cl,-3.1
5144,C-495,17-beta-estradiol,"InChI=1S/C18H24O2/c1-18-9-8-14-13-5-3-12(19)10-11(13)2-4-15(14)16(18)6-7-17(18)20/h3,5,10,14-17,19-20H,2,4,6-9H2,1H3",VOXZDWNPVJITMN-UHFFFAOYSA-N,CC12CCC3C(CCC4=CC(=CC=C34)O)C1CCC2O,-4.83
5145,C-496,"bromacil;  3-sec-butyl-5-bromo-6-methylpyrimidine-2,4-dione","InChI=1S/C9H13BrN2O2/c1-4-5(2)12-8(13)7(10)6(3)11-9(12)14/h5H,4H2,1-3H3,(H,11,14)",CTSLUCNDVMMDHG-UHFFFAOYSA-N,CCC(C)N1C(=O)NC(=C(Br)C1=O)C,-2.5
5146,C-497,"4,4'-diaminodiphenylmethane","InChI=1S/C13H14N2/c14-12-5-1-10(2-6-12)9-11-3-7-13(15)8-4-11/h1-8H,9,14-15H2",YBRVSVVVWCFQMG-UHFFFAOYSA-N,NC1=CC=C(CC2=CC=C(N)C=C2)C=C1,-2.3
5147,C-498,"benzidine;  4,4'-diaminobiphenyl","InChI=1S/C12H12N2/c13-11-5-1-9(2-6-11)10-3-7-12(14)8-4-10/h1-8H,13-14H2",HFACYLZERDEVSX-UHFFFAOYSA-N,NC1=CC=C(C=C1)C2=CC=C(N)C=C2,-2.76
5148,C-499,lovastatin,"InChI=1S/C24H36O5/c1-5-15(3)24(27)29-21-11-14(2)10-17-7-6-16(4)20(23(17)21)9-8-19-12-18(25)13-22(26)28-19/h6-7,10,14-16,18-21,23,25H,5,8-9,11-13H2,1-4H3",PCZOHLXUXFIOCF-UHFFFAOYSA-N,CCC(C)C(=O)OC1CC(C)C=C2C=CC(C)C(CCC3CC(O)CC(=O)O3)C12,-6.01
5149,C-500,1-naphthyl  isothiocyanate; 1-isothiocyanatonaphthalene,InChI=1S/C11H7NS/c13-8-12-11-7-3-5-9-4-1-2-6-10(9)11/h1-7H,JBDOSUUXMYMWQH-UHFFFAOYSA-N,S=C=NC1=CC=CC2=CC=CC=C12,-4.6
5150,C-501,hydrocortisone,"InChI=1S/C21H30O5/c1-19-7-5-13(23)9-12(19)3-4-14-15-6-8-21(26,17(25)11-22)20(15,2)10-16(24)18(14)19/h9,14-16,18,22,24,26H,3-8,10-11H2,1-2H3",JYGXADMDTFJGBT-UHFFFAOYSA-N,CC12CCC(=O)C=C1CCC3C4CCC(O)(C(=O)CO)C4(C)CC(O)C23,-3.03
5151,C-502,linuron,"InChI=1S/C9H10Cl2N2O2/c1-13(15-2)9(14)12-6-3-4-7(10)8(11)5-6/h3-5H,1-2H3,(H,12,14)",XKJMBINCVNINCA-UHFFFAOYSA-N,CON(C)C(=O)NC1=CC(=C(Cl)C=C1)Cl,-3.52