,ID,Name,InChI,InChIKey,SMILES,Solubility
474,B-475,anethole,"InChI=1S/C10H12O/c1-3-4-9-5-7-10(11-2)8-6-9/h3-8H,1-2H3/b4-3+",RUVINXPYWBROJD-ONEGZZNKSA-N,COc1ccc(\C=C\C)cc1,-3.1256
475,B-476,1-phenyldecane,"InChI=1S/C16H26/c1-2-3-4-5-6-7-8-10-13-16-14-11-9-12-15-16/h9,11-12,14-15H,2-8,10,13H2,1H3",UZILCZKGXMQEQR-UHFFFAOYSA-N,CCCCCCCCCCc1ccccc1,-7.959
476,B-477,2-ethyl-1-hexanol,"InChI=1S/C8H18O/c1-3-5-6-8(4-2)7-9/h8-9H,3-7H2,1-2H3",YIWUKEYIRIRTPP-UHFFFAOYSA-N,CCCCC(CC)CO,-2.1702
477,B-478,"2,5-tetrahydrofurandimethanol","InChI=1S/C6H12O3/c7-3-5-1-2-6(4-8)9-5/h5-8H,1-4H2",YCZZQSFWHFBKMU-UHFFFAOYSA-N,OCC1CCC(CO)O1,0.8789
478,B-479,p-tolualdehyde,"InChI=1S/C8H8O/c1-7-2-4-8(6-9)5-3-7/h2-6H,1H3",FXLOVSHXALFLKQ-UHFFFAOYSA-N,Cc1ccc(C=O)cc1,-1.7235
479,B-480,5-ethyl-2-methylpyridine,"InChI=1S/C8H11N/c1-3-8-5-4-7(2)9-6-8/h4-6H,3H2,1-2H3",NTSLROIKFLNUIJ-UHFFFAOYSA-N,CCc1ccc(C)nc1,-1.0042
480,B-481,4-methoxyaniline,"InChI=1S/C7H9NO/c1-9-7-4-2-6(8)3-5-7/h2-5H,8H2,1H3",BHAAPTBBJKJZER-UHFFFAOYSA-N,COc1ccc(N)cc1,-0.7683
481,B-482,p-methoxybenzyl alcohol,"InChI=1S/C8H10O2/c1-10-8-4-2-7(6-9)3-5-8/h2-5,9H,6H2,1H3",MSHFRERJPWKJFX-UHFFFAOYSA-N,COc1ccc(CO)cc1,-1.8394
482,B-483,2-methyl-1-pentanol,"InChI=1S/C6H14O/c1-3-4-6(2)5-7/h6-7H,3-5H2,1-2H3",PFNHSEQQEPMLNI-UHFFFAOYSA-N,CCCC(C)CO,-1.2312
483,B-484,1-hexyn-3-ol,"InChI=1S/C6H10O/c1-3-5-6(7)4-2/h2,6-7H,3,5H2,1H3",LTFTWJYRQNTCHI-UHFFFAOYSA-N,CCCC(O)C#C,-0.4121
484,B-485,ethyl chloroacetate,"InChI=1S/C4H7ClO2/c1-2-7-4(6)3-5/h2-3H2,1H3",VEUUMBGHMNQHGO-UHFFFAOYSA-N,CCOC(=O)CCl,-0.8005
485,B-486,methyl acetoacetate,"InChI=1S/C5H8O3/c1-4(6)3-5(7)8-2/h3H2,1-2H3",WRQNANDWMGAFTP-UHFFFAOYSA-N,COC(=O)CC(C)=O,0.6341
486,B-487,s-butylacetate,"InChI=1S/C6H12O2/c1-4-5(2)8-6(3)7/h5H,4H2,1-3H3",DCKVNWZUADLDEH-UHFFFAOYSA-N,CCC(C)OC(C)=O,-1.2727
487,B-488,ethylbutyrate,"InChI=1S/C6H12O2/c1-3-5-6(7)8-4-2/h3-5H2,1-2H3",OBNCKNCVKJNDBV-UHFFFAOYSA-N,CCCC(=O)OCC,-1.3749
488,B-489,ethyl cyanoacetate,"InChI=1S/C5H7NO2/c1-2-8-5(7)3-4-6/h2-3H2,1H3",ZIUSEGSNTOUIPT-UHFFFAOYSA-N,CCOC(=O)CC#N,-0.7525
489,B-490,n-methyldiethanolamine,"InChI=1S/C5H13NO2/c1-6(2-4-7)3-5-8/h7-8H,2-5H2,1H3",CRVGTESFCCXCTH-UHFFFAOYSA-N,CN(CCO)CCO,0.9239
490,B-491,"butanoic acid, 1,2-ethanediyl ester","InChI=1S/C10H18O4/c1-3-5-9(11)13-7-8-14-10(12)6-4-2/h3-8H2,1-2H3",SFTRWCBAYKQWCS-UHFFFAOYSA-N,CCCC(=O)OCCOC(=O)CCC,-2.6069
491,B-492,dibutyl maleate,"InChI=1S/C12H20O4/c1-3-5-9-15-11(13)7-8-12(14)16-10-6-4-2/h7-8H,3-6,9-10H2,1-2H3/b8-7-",JBSLOWBPDRZSMB-FPLPWBNLSA-N,CCCCOC(=O)\C=C/C(=O)OCCCC,-2.6595
492,B-493,"hexanedioic acid, bis(2-methoxyethyl) ester","InChI=1S/C12H22O6/c1-15-7-9-17-11(13)5-3-4-6-12(14)18-10-8-16-2/h3-10H2,1-2H3",GVRNUDCCYWKHMV-UHFFFAOYSA-N,COCCOC(=O)CCCCC(=O)OCCOC,-1.2665
493,B-494,geraniol,"InChI=1S/C10H18O/c1-9(2)5-4-6-10(3)7-8-11/h5,7,11H,4,6,8H2,1-3H3/b10-7+",GLZPCOQZEFWAFX-JXMROGBWSA-N,CC(C)=CCC\C(C)=C\CO,-3.1882
494,B-495,"2,6-octadien-1-ol, 3,7-dimethyl-, (z)-","InChI=1S/C10H18O/c1-9(2)5-4-6-10(3)7-8-11/h5,7,11H,4,6,8H2,1-3H3/b10-7-",GLZPCOQZEFWAFX-YFHOEESVSA-N,CC(C)=CCC\C(C)=C/CO,-2.4631
495,B-496,ethyl heptanoate,"InChI=1S/C9H18O2/c1-3-5-6-7-8-9(10)11-4-2/h3-8H2,1-2H3",TVQGDYNRXLTQAP-UHFFFAOYSA-N,CCCCCCC(=O)OCC,-2.7369
496,B-497,ethyl octanoate,"InChI=1S/C10H20O2/c1-3-5-6-7-8-9-10(11)12-4-2/h3-9H2,1-2H3",YYZUSRORWSJGET-UHFFFAOYSA-N,CCCCCCCC(=O)OCC,-3.3907
497,B-498,quinhydrone,"InChI=1S/C6H6O2.C6H4O2/c2*7-5-1-2-6(8)4-3-5/h1-4,7-8H;1-4H",BDJXVNRFAQSMAA-UHFFFAOYSA-N,Oc1ccc(O)cc1.O=C2C=CC(=O)C=C2,-1.7305
498,B-499,3-heptanone,"InChI=1S/C7H14O/c1-3-5-6-7(8)4-2/h3-6H2,1-2H3",NGAZZOYFWWSOGK-UHFFFAOYSA-N,CCCCC(=O)CC,-1.4242
499,B-500,n-propylpropionate,"InChI=1S/C6H12O2/c1-3-5-8-6(7)4-2/h3-5H2,1-2H3",MCSINKKTEDDPNK-UHFFFAOYSA-N,CCCOC(=O)CC,-1.3406
500,B-501,"2,5-piperazinedione","InChI=1S/C4H6N2O2/c7-3-1-5-4(8)2-6-3/h1-2H2,(H,5,8)(H,6,7)",BXRNXXXXHLBUKK-UHFFFAOYSA-N,O=C1CNC(=O)CN1,-0.8312
501,B-502,"1-propanol, 2-(2-hydroxypropoxy)-","InChI=1S/C6H14O3/c1-5(8)4-9-6(2)3-7/h5-8H,3-4H2,1-2H3",DUFKCOQISQKSAV-UHFFFAOYSA-N,CC(O)COC(C)CO,0.8723
502,B-503,dimethyl succinate,"InChI=1S/C6H10O4/c1-9-5(7)3-4-6(8)10-2/h3-4H2,1-2H3",MUXOBHXGJLMRAB-UHFFFAOYSA-N,COC(=O)CCC(=O)OC,-0.7668
503,B-504,3-octanone,"InChI=1S/C8H16O/c1-3-5-6-7-8(9)4-2/h3-7H2,1-2H3",RHLVCLIPMVJYKS-UHFFFAOYSA-N,CCCCCC(=O)CC,-1.693
504,B-505,methyl hexanoate,"InChI=1S/C7H14O2/c1-3-4-5-6-7(8)9-2/h3-6H2,1-2H3",NUKZAGXMHTUAFE-UHFFFAOYSA-N,CCCCCC(=O)OC,-1.9917
505,B-506,"decanedioic acid, dimethyl ester","InChI=1S/C12H22O4/c1-15-11(13)9-7-5-3-4-6-8-10-12(14)16-2/h3-10H2,1-2H3",ALOUNLDAKADEEB-UHFFFAOYSA-N,COC(=O)CCCCCCCCC(=O)OC,-3.2831
506,B-507,"1,2-butyleneoxide","InChI=1S/C4H8O/c1-2-4-3-5-4/h4H,2-3H2,1H3",RBACIKXCRWGCBB-UHFFFAOYSA-N,CCC1CO1,0.1197
507,B-508,"1-propyne, 3-bromo-","InChI=1S/C3H3Br/c1-2-3-4/h1H,3H2",YORCIIVHUBAYBQ-UHFFFAOYSA-N,BrCC#C,-0.9022
508,B-509,1-butyne,"InChI=1S/C4H6/c1-3-4-2/h1H,4H2,2H3",KDKYADYSIPSCCQ-UHFFFAOYSA-N,CCC#C,-1.2753
509,B-510,1-propanethiol,"InChI=1S/C3H8S/c1-2-3-4/h4H,2-3H2,1H3",SUVIGLJNEAMWEG-UHFFFAOYSA-N,CCCS,-1.6021
510,B-511,1-bromo-2-chloroethane,InChI=1S/C2H4BrCl/c3-1-2-4/h1-2H2,IBYHHJPAARCAIE-UHFFFAOYSA-N,ClCCBr,-1.3177
511,B-512,3-chloropropylene,"InChI=1S/C3H5Cl/c1-2-3-4/h2H,1,3H2",OSDWBNJEKMUWAV-UHFFFAOYSA-N,ClCC=C,-1.3562
512,B-513,2-chloroethanol,"InChI=1S/C2H5ClO/c3-1-2-4/h4H,1-2H2",SZIFAVKTNFCBPC-UHFFFAOYSA-N,OCCCl,1.0941
513,B-514,1-iodopropane,"InChI=1S/C3H7I/c1-3(2)4/h3H,1-2H3",FMKOJHQHASLBPH-UHFFFAOYSA-N,CC(C)I,-2.201
514,B-515,allylamine,"InChI=1S/C3H7N/c1-2-3-4/h2H,1,3-4H2",VVJKKWFAADXIJK-UHFFFAOYSA-N,NCC=C,1.2434
515,B-516,chloroacetonitrile,InChI=1S/C2H2ClN/c3-1-2-4/h1H2,RENMDAKOXSCIGH-UHFFFAOYSA-N,ClCC#N,0.1221
516,B-517,"1,2-diaminoethane",InChI=1S/C2H8N2/c3-1-2-4/h1-4H2,PIICEJLVQHRZGT-UHFFFAOYSA-N,NCCN,1.2211
517,B-518,allyl alcohol,"InChI=1S/C3H6O/c1-2-3-4/h2,4H,1,3H2",XXROGKLTLUQVRX-UHFFFAOYSA-N,OCC=C,1.236
518,B-519,propargyl alcohol,"InChI=1S/C3H4O/c1-2-3-4/h1,4H,3H2",TVDSBUOJIPERQY-UHFFFAOYSA-N,OCC#C,1.2513
519,B-520,ethylene glycol,"InChI=1S/C2H6O2/c3-1-2-4/h3-4H,1-2H2",LYCAIKOWRPUZTN-UHFFFAOYSA-N,OCCO,1.2071
520,B-521,glyoxal,InChI=1S/C2H2O2/c3-1-2-4/h1-2H,LEQAOMBKQFMDFZ-UHFFFAOYSA-N,O=CC=O,1.2363
521,B-522,methylvinylether,"InChI=1S/C3H6O/c1-3-4-2/h3H,1H2,2H3",XJRBAMWJDBPFIM-UHFFFAOYSA-N,COC=C,-0.5879
522,B-523,methylformate,"InChI=1S/C2H4O2/c1-4-2-3/h2H,1H3",TZIHFWKZFHZASV-UHFFFAOYSA-N,COC=O,0.5832
523,B-524,taurine,"InChI=1S/C2H7NO3S/c3-1-2-7(4,5)6/h1-3H2,(H,4,5,6)",XOAAWQZATWQOTB-UHFFFAOYSA-N,NCC[S](O)(=O)=O,-0.1906
524,B-525,isethionic acid,"InChI=1S/C2H6O4S/c3-1-2-7(4,5)6/h3H,1-2H2,(H,4,5,6)",SUMDYPCJJOFFON-UHFFFAOYSA-N,OCC[S](O)(=O)=O,0.8992
525,B-526,"2-methyl-2,4-pentanediol","InChI=1S/C6H14O2/c1-5(7)4-6(2,3)8/h5,7-8H,4H2,1-3H3",SVTBMSDMJJWYQN-UHFFFAOYSA-N,CC(O)CC(C)(C)O,0.9275
526,B-527,sarin,"InChI=1S/C4H10FO2P/c1-4(2)7-8(3,5)6/h4H,1-3H3",DYAHQFWOVKZOOW-UHFFFAOYSA-N,CC(C)O[P](C)(F)=O,0.8536
527,B-528,hexamethyldisiloxane,"InChI=1S/C6H18OSi2/c1-8(2,3)7-9(4,5)6/h1-6H3",UQEAIHBTYFGYIE-UHFFFAOYSA-N,C[Si](C)(C)O[Si](C)(C)C,-5.242000000000001
528,B-529,tetraethyl pyrophosphate,"InChI=1S/C8H20O7P2/c1-5-11-16(9,12-6-2)15-17(10,13-7-3)14-8-4/h5-8H2,1-4H3",IDCBOTIENDVCBQ-UHFFFAOYSA-N,CCO[P](=O)(OCC)O[P](=O)(OCC)OCC,0.5373
529,B-530,octamethyltrisiloxane,"InChI=1S/C8H24O2Si3/c1-11(2,3)9-13(7,8)10-12(4,5)6/h1-8H3",CXQXSVUQTKDNFP-UHFFFAOYSA-N,C[Si](C)(C)O[Si](C)(C)O[Si](C)(C)C,-6.8424
530,B-531,di-n-butyl phosphate,"InChI=1S/C8H19O4P/c1-3-5-7-11-13(9,10)12-8-6-4-2/h3-8H2,1-2H3,(H,9,10)",JYFHYPJRHGVZDY-UHFFFAOYSA-N,CCCCO[P](O)(=O)OCCCC,-1.0874
531,B-532,trichlorourethan,"InChI=1S/C3H4Cl3NO2/c4-3(5,6)1-9-2(7)8/h1H2,(H2,7,8)",QPLJYAKLSCXZSF-UHFFFAOYSA-N,NC(=O)OCC(Cl)(Cl)Cl,-1.2843
532,B-533,4-methoxy-4-methyl-2-pentanone,"InChI=1S/C7H14O2/c1-6(8)5-7(2,3)9-4/h5H2,1-4H3",KOKPBCHLPVDQTK-UHFFFAOYSA-N,COC(C)(C)CC(C)=O,0.3326
533,B-534,1-bromo-3-methylbutane,"InChI=1S/C5H11Br/c1-5(2)3-4-6/h5H,3-4H2,1-2H3",YXZFFTJAHVMMLF-UHFFFAOYSA-N,CC(C)CCBr,-2.886
534,B-535,2-methylpentane,"InChI=1S/C6H14/c1-4-5-6(2)3/h6H,4-5H2,1-3H3",AFABGHUZZDYHJO-UHFFFAOYSA-N,CCCC(C)C,-3.7893
535,B-536,"1,3-butanediol","InChI=1S/C4H10O2/c1-4(6)2-3-5/h4-6H,2-3H2,1H3",PUPZLCDOIYMWBV-UHFFFAOYSA-N,CC(O)CCO,1.0452
536,B-537,aldol,"InChI=1S/C4H8O2/c1-4(6)2-3-5/h3-4,6H,2H2,1H3",HSJKGGMUJITCBW-UHFFFAOYSA-N,CC(O)CC=O,1.055
537,B-538,"acetamide, 2-cyano-","InChI=1S/C3H4N2O/c4-2-1-3(5)6/h1H2,(H2,5,6)",DGJMPUGMZIKDRO-UHFFFAOYSA-N,NC(=O)CC#N,0.1893
538,B-539,butyric acid,"InChI=1S/C4H8O2/c1-2-3-4(5)6/h2-3H2,1H3,(H,5,6)",FERIUCNNQQJTOY-UHFFFAOYSA-N,CCCC(O)=O,-0.1669
539,B-540,crotonic acid,"InChI=1S/C4H6O2/c1-2-3-4(5)6/h2-3H,1H3,(H,5,6)/b3-2+",LDHQCZJRKDOVOX-NSCUHMNNSA-N,C/C=C/C(O)=O,0.0382
540,B-541,beta-alanine,"InChI=1S/C3H7NO2/c4-2-1-3(5)6/h1-2,4H2,(H,5,6)",UCMIRNVEIXFBKS-UHFFFAOYSA-N,NCCC(O)=O,0.7865
541,B-542,n-methyl glycine,"InChI=1S/C3H7NO2/c1-4-2-3(5)6/h4H,2H2,1H3,(H,5,6)",FSYKKLYZXJSNPZ-UHFFFAOYSA-N,CNCC(O)=O,0.5273
542,B-543,1-methoxy-2-propanol,"InChI=1S/C4H10O2/c1-4(5)3-6-2/h4-5H,3H2,1-2H3",ARXJGSRGQADJSQ-UHFFFAOYSA-N,COCC(C)O,1.0452
543,B-544,2-dimethylaminoethanol,"InChI=1S/C4H11NO/c1-5(2)3-4-6/h6H,3-4H2,1-2H3",UEEJHVSXFDXPFK-UHFFFAOYSA-N,CN(C)CCO,1.0499
544,B-545,"2,4-dimethylpentane","InChI=1S/C7H16/c1-6(2)5-7(3)4/h6-7H,5H2,1-4H3",BZHMBWZPUJHVEE-UHFFFAOYSA-N,CC(C)CC(C)C,-4.2605
545,B-546,4-methyl-2-pentanol,"InChI=1S/C6H14O/c1-5(2)4-6(3)7/h5-7H,4H2,1-3H3",WVYWICLMDOOCFB-UHFFFAOYSA-N,CC(C)CC(C)O,-0.7945
546,B-547,diisopropylamine,"InChI=1S/C6H15N/c1-5(2)7-6(3)4/h5-7H,1-4H3",UAOMVDZJSHZZME-UHFFFAOYSA-N,CC(C)NC(C)C,0.0363
547,B-548,isopropyl acetate,"InChI=1S/C5H10O2/c1-4(2)7-5(3)6/h4H,1-3H3",JMMWKPVZQRWMSS-UHFFFAOYSA-N,CC(C)OC(C)=O,-0.5192
548,B-549,acetic anhydride,InChI=1S/C4H6O3/c1-3(5)7-4(2)6/h1-2H3,WFDIJRYMOXRFFG-UHFFFAOYSA-N,CC(=O)OC(C)=O,0.0702
549,B-550,"2(5h)-furanone, 5-methylene-","InChI=1S/C5H4O2/c1-4-2-3-5(6)7-4/h2-3H,1H2",RNYZJZKPGHQTJR-UHFFFAOYSA-N,C=C1OC(=O)C=C1,-0.9827
550,B-551,diethyl 3-methyl-5-pyrazolyl phosphate,"InChI=1S/C8H15N2O4P/c1-4-12-15(11,13-5-2)14-8-6-7(3)9-10-8/h6H,4-5H2,1-3H3,(H,9,10)",CDCTYRNLXFEDHC-UHFFFAOYSA-N,CCO[P](=O)(OCC)Oc1cc(C)[nH]n1,-2.3696
551,B-552,m-chlorotoluene,"InChI=1S/C7H7Cl/c1-6-3-2-4-7(8)5-6/h2-5H,1H3",OSOUNOBYRMOXQQ-UHFFFAOYSA-N,Cc1cccc(Cl)c1,-3.5228
552,B-553,metaldehyde (tetramer),"InChI=1S/C8H16O4/c1-5-9-6(2)11-8(4)12-7(3)10-5/h5-8H,1-4H3",GKKDCARASOJPNG-UHFFFAOYSA-N,CC1OC(C)OC(C)OC(C)O1,-2.8997
553,B-554,ethyl isovalerate,"InChI=1S/C7H14O2/c1-4-9-7(8)5-6(2)3/h6H,4-5H2,1-3H3",PPXUHEORWJQRHJ-UHFFFAOYSA-N,CCOC(=O)CC(C)C,-1.8135
554,B-555,"1,3,5-trihydroxybenzene","InChI=1S/C6H6O3/c7-4-1-5(8)3-6(9)2-4/h1-3,7-9H",QCDYQQDYXPDABM-UHFFFAOYSA-N,Oc1cc(O)cc(O)c1,-1.0754
555,B-556,"2,4,6-collidine","InChI=1S/C8H11N/c1-6-4-7(2)9-8(3)5-6/h4-5H,1-3H3",BWZVCCNYKMEVEX-UHFFFAOYSA-N,Cc1cc(C)nc(C)c1,-0.5394
556,B-557,melamine,"InChI=1S/C3H6N6/c4-1-7-2(5)9-3(6)8-1/h(H6,4,5,6,7,8,9)",JDSHMPZPIAZGSV-UHFFFAOYSA-N,Nc1nc(N)nc(N)n1,-1.5916
557,B-558,cyanuric acid,"InChI=1S/C3H3N3O3/c7-1-4-2(8)6-3(9)5-1/h(H3,4,5,6,7,8,9)",ZFSLODLOARCGLH-UHFFFAOYSA-N,O=C1NC(=O)NC(=O)N1,-1.8098
558,B-559,"2,6-dimethyl-4-heptanol","InChI=1S/C9H20O/c1-7(2)5-9(10)6-8(3)4/h7-10H,5-6H2,1-4H3",HXQPUEQDBSPXTE-UHFFFAOYSA-N,CC(C)CC(O)CC(C)C,-2.5108
559,B-560,"2,6-dimethyl-4-heptanone","InChI=1S/C9H18O/c1-7(2)5-9(10)6-8(3)4/h7-8H,5-6H2,1-4H3",PTTPXKJBFFKCEK-UHFFFAOYSA-N,CC(C)CC(=O)CC(C)C,-1.7314
560,B-561,4-methyl-2-pentyl acetate,"InChI=1S/C8H16O2/c1-6(2)5-7(3)10-8(4)9/h6-7H,5H2,1-4H3",CPIVYSAVIPTCCX-UHFFFAOYSA-N,CC(C)CC(C)OC(C)=O,-2.0451
561,B-562,1-methylcyclohexane,"InChI=1S/C7H14/c1-7-5-3-2-4-6-7/h7H,2-6H2,1H3",UAEPNZWRGJTJPN-UHFFFAOYSA-N,CC1CCCCC1,-3.8459
562,B-563,4-methylpyridine,"InChI=1S/C6H7N/c1-6-2-4-7-5-3-6/h2-5H,1H3",FKNQCJSGGFJEIZ-UHFFFAOYSA-N,Cc1ccncc1,1.0309
563,B-564,cyclohexanamine,"InChI=1S/C6H13N/c7-6-4-2-1-3-5-6/h6H,1-5,7H2",PAFZNILMFXTMIY-UHFFFAOYSA-N,NC1CCCCC1,1.0036
564,B-565,thiophenol,"InChI=1S/C6H6S/c7-6-4-2-1-3-5-6/h1-5,7H",RMVRSNDYEFQCLF-UHFFFAOYSA-N,Sc1ccccc1,-2.1204
565,B-566,3-methylpyridine,"InChI=1S/C6H7N/c1-6-3-2-4-7-5-6/h2-5H,1H3",ITQTTZVARXURQS-UHFFFAOYSA-N,Cc1cccnc1,1.0309
566,B-567,n-methylmorpholine,"InChI=1S/C5H11NO/c1-6-2-4-7-5-3-6/h2-5H2,1H3",SJRJJKPEHAURKC-UHFFFAOYSA-N,CN1CCOCC1,0.995
567,B-568,2-methylpyridine,"InChI=1S/C6H7N/c1-6-4-2-3-5-7-6/h2-5H,1H3",BSKHPKMHTQYZBB-UHFFFAOYSA-N,Cc1ccccn1,1.0309
568,B-569,"piperazine, 2-methyl-","InChI=1S/C5H12N2/c1-5-4-6-2-3-7-5/h5-7H,2-4H2,1H3",JOMNTHCQHJPVAZ-UHFFFAOYSA-N,CC1CNCCN1,0.6378
569,B-570,2-methylpyrazine,"InChI=1S/C5H6N2/c1-5-4-6-2-3-7-5/h2-4H,1H3",CAWHJQAVHZEVTJ-UHFFFAOYSA-N,Cc1cnccn1,1.0263
570,B-571,n-butylbutyrate,"InChI=1S/C8H16O2/c1-3-5-7-10-8(9)6-4-2/h3-7H2,1-2H3",XUPYJHCZDLZNFP-UHFFFAOYSA-N,CCCCOC(=O)CCC,-2.4601
571,B-572,dibutyl sebacate,"InChI=1S/C18H34O4/c1-3-5-15-21-17(19)13-11-9-7-8-10-12-14-18(20)22-16-6-4-2/h3-16H2,1-2H3",PYGXAGIECVVIOZ-UHFFFAOYSA-N,CCCCOC(=O)CCCCCCCCC(=O)OCCCC,-3.8955
572,B-573,"hexanedioic acid, bis(2-ethoxyethyl) ester","InChI=1S/C14H26O6/c1-3-17-9-11-19-13(15)7-5-6-8-14(16)20-12-10-18-4-2/h3-12H2,1-2H3",NJEMMCIKSMMBDM-UHFFFAOYSA-N,CCOCCOC(=O)CCCCC(=O)OCCOCC,-2.065
573,B-574,3-hexyn-2-ol,"InChI=1S/C6H10O/c1-3-4-5-6(2)7/h6-7H,3H2,1-2H3",IFCAMPHNVKBSTF-UHFFFAOYSA-N,CCC#CC(C)O,-0.4121
574,B-575,isobutyl vinyl ether,"InChI=1S/C6H12O/c1-4-7-5-6(2)3/h4,6H,1,5H2,2-3H3",OZCMOJQQLBXBKI-UHFFFAOYSA-N,CC(C)COC=C,-1.5236
575,B-576,"1,3-propanediamine, n,n-dimethyl-","InChI=1S/C5H14N2/c1-7(2)5-3-4-6/h3-6H2,1-2H3",IUNMPGNGSSIWFP-UHFFFAOYSA-N,CN(C)CCCN,0.9906
576,B-577,2-isopropoxyethanol,"InChI=1S/C5H12O2/c1-5(2)7-4-3-6/h5-6H,3-4H2,1-2H3",HCGFUIQPSOCUHI-UHFFFAOYSA-N,CC(C)OCCO,0.9823
577,B-578,"1,3-dibromopropane",InChI=1S/C3H6Br2/c4-2-1-3-5/h1-3H2,VEFLKXRACNJHOV-UHFFFAOYSA-N,BrCCCBr,-2.0747
578,B-579,1-pentene,"InChI=1S/C5H10/c1-3-5-4-2/h3H,1,4-5H2,2H3",YWAKXRMUMFPDSH-UHFFFAOYSA-N,CCCC=C,-2.6757
579,B-580,2-pentene,"InChI=1S/C5H10/c1-3-5-4-2/h3,5H,4H2,1-2H3/b5-3-",QMMOXUPEWRXHJS-HYXAFXHYSA-N,CC\C=C/C,-2.5384
580,B-581,n-butylamine,"InChI=1S/C4H11N/c1-2-3-4-5/h2-5H2,1H3",HQABUPZFAYXKJW-UHFFFAOYSA-N,CCCCN,1.1359
581,B-582,ethylene cyanohydrin,"InChI=1S/C3H5NO/c4-2-1-3-5/h5H,1,3H2",WSGYTJNNHPZFKR-UHFFFAOYSA-N,OCCC#N,1.1483
582,B-583,butanethiol,"InChI=1S/C4H10S/c1-2-3-4-5/h5H,2-4H2,1H3",WQAQPCDUOCURKW-UHFFFAOYSA-N,CCCCS,-2.1792
583,B-584,2-(methylamino)ethanol,"InChI=1S/C3H9NO/c1-4-2-3-5/h4-5H,2-3H2,1H3",OPKOKAMJFNKNAS-UHFFFAOYSA-N,CNCCO,1.1243
584,B-585,"ethanol, 2-hydrazino-","InChI=1S/C2H8N2O/c3-4-1-2-5/h4-5H,1-3H2",GBHCABUWWQUMAJ-UHFFFAOYSA-N,NNCCO,1.1186
585,B-586,2-methoxyethanol,"InChI=1S/C3H8O2/c1-5-3-2-4/h4H,2-3H2,1H3",XNWFRZJHXBZDAG-UHFFFAOYSA-N,COCCO,1.1186
586,B-587,diethylamine,"InChI=1S/C4H11N/c1-3-5-4-2/h5H,3-4H2,1-2H3",HPNMFZURTQLUMO-UHFFFAOYSA-N,CCNCC,1.1359
587,B-588,divinyl ether,"InChI=1S/C4H6O/c1-3-5-4-2/h3-4H,1-2H2",QYKIQEUNHZKYBP-UHFFFAOYSA-N,C=COC=C,-0.9597
588,B-589,tetrahydrofuran,InChI=1S/C4H8O/c1-2-4-5-3-1/h1-4H2,WYURNTSHIVDZCO-UHFFFAOYSA-N,C1CCOC1,1.1420000000000001
589,B-590,t-butyl-peroxide,"InChI=1S/C8H18O2/c1-7(2,3)9-10-8(4,5)6/h1-6H3",LSXWFXONGKSEMY-UHFFFAOYSA-N,CC(C)(C)OOC(C)(C)C,-3.165
590,B-591,maleic acid,"InChI=1S/C4H4O4/c5-3(6)1-2-4(7)8/h1-2H,(H,5,6)(H,7,8)/b2-1+",VZCYOOQTPOCHFL-OWOJBTEDSA-N,OC(=O)\C=C\C(O)=O,0.5794
591,B-592,sec-butylacetate,"InChI=1S/C6H12O2/c1-5(2)4-8-6(3)7/h5H,4H2,1-3H3",GJRQTCIYDGXPES-UHFFFAOYSA-N,CC(C)COC(C)=O,-1.2657
592,B-593,"acetone, semicarbazone","InChI=1S/C4H9N3O/c1-3(2)6-7-4(5)8/h1-2H3,(H3,5,7,8)",HQDAJGNZGNZGCO-UHFFFAOYSA-N,CC(C)=NNC(N)=O,-0.2674
593,B-594,ethyl decanoate,"InChI=1S/C12H24O2/c1-3-5-6-7-8-9-10-11-12(13)14-4-2/h3-11H2,1-2H3",RGXWDWUGBIJHDO-UHFFFAOYSA-N,CCCCCCCCCC(=O)OCC,-4.1006
594,B-595,diethyl sebacate,"InChI=1S/C14H26O4/c1-3-17-13(15)11-9-7-5-6-8-10-12-14(16)18-4-2/h3-12H2,1-2H3",ONKUXPIBXRRIDU-UHFFFAOYSA-N,CCOC(=O)CCCCCCCCC(=O)OCC,-3.5091
595,B-596,isoamyl formate,"InChI=1S/C6H12O2/c1-6(2)3-4-8-5-7/h5-6H,3-4H2,1-2H3",XKYICAQFSCFURC-UHFFFAOYSA-N,CC(C)CCOC=O,-1.5206
596,B-597,2-methoxyethyl acetate,"InChI=1S/C5H10O3/c1-5(6)8-4-3-7-2/h3-4H2,1-2H3",XLLIQLLCWZCATF-UHFFFAOYSA-N,COCCOC(C)=O,0.9276
597,B-598,"1,4-dibromobutane",InChI=1S/C4H8Br2/c5-3-1-2-4-6/h1-4H2,ULTHEAFYOOPTTB-UHFFFAOYSA-N,BrCCCCBr,-2.7902
598,B-599,"1,4-dichlorobutane",InChI=1S/C4H8Cl2/c5-3-1-2-4-6/h1-4H2,KJDRSWPQXHESDQ-UHFFFAOYSA-N,ClCCCCCl,-0.92
599,B-600,"1,4-dichloro-2-butene(trans)","InChI=1S/C4H6Cl2/c5-3-1-2-4-6/h1-2H,3-4H2/b2-1+",FQDIANVAWVHZIR-OWOJBTEDSA-N,ClC/C=C/CCl,-2.1675
600,B-601,n-pentylamine,"InChI=1S/C5H13N/c1-2-3-4-5-6/h2-6H2,1H3",DPBLXKKOBLCELK-UHFFFAOYSA-N,CCCCCN,1.0597
601,B-602,1-pentanal,"InChI=1S/C5H10O/c1-2-3-4-5-6/h5H,2-4H2,1H3",HGBOYTHUEUWSSQ-UHFFFAOYSA-N,CCCCC=O,-0.867
602,B-603,"1,4-butanediol","InChI=1S/C4H10O2/c5-3-1-2-4-6/h5-6H,1-4H2",WERYXYBDKMZEQL-UHFFFAOYSA-N,OCCCCO,1.0452
603,B-604,"2-butyne-1,4-diol","InChI=1S/C4H6O2/c5-3-1-2-4-6/h5-6H,3-4H2",DLDJFQGPPSQZKI-UHFFFAOYSA-N,OCC#CCO,0.6379
604,B-605,1-pentanethiol,"InChI=1S/C5H12S/c1-2-3-4-5-6/h6H,2-5H2,1H3",ZRKMQKLGEQPLNS-UHFFFAOYSA-N,CCCCCS,-2.8248
605,B-606,ethylene glycol dimethyl ether,"InChI=1S/C4H10O2/c1-5-3-4-6-2/h3-4H2,1-2H3",XTHFKEDIFFGKHM-UHFFFAOYSA-N,COCCOC,1.0452
606,B-607,2-chloroethyl vinyl ether,"InChI=1S/C4H7ClO/c1-2-6-4-3-5/h2H,1,3-4H2",DNJRKFKAFWSXSE-UHFFFAOYSA-N,ClCCOC=C,-2.3951
607,B-608,2-ethoxyethanol,"InChI=1S/C4H10O2/c1-2-6-4-3-5/h5H,2-4H2,1H3",ZNQVEEAIQZEUHB-UHFFFAOYSA-N,CCOCCO,1.0452
608,B-609,piperazine,"InChI=1S/C4H10N2/c1-2-6-4-3-5-1/h5-6H,1-4H2",GLUUGHFHXGJENI-UHFFFAOYSA-N,C1CNCCN1,1.0648
609,B-610,pyridine,InChI=1S/C5H5N/c1-2-4-6-5-3-1/h1-5H,JUJWROOIHBZHMG-UHFFFAOYSA-N,c1ccncc1,1.1018
610,B-611,morpholine,"InChI=1S/C4H9NO/c1-3-6-4-2-5-1/h5H,1-4H2",YNAVUWVOSKDBBP-UHFFFAOYSA-N,C1COCCN1,1.0599
611,B-612,pentanedioc acid,"InChI=1S/C5H8O4/c6-4(7)2-1-3-5(8)9/h1-3H2,(H,6,7)(H,8,9)",JFCQEDHGNNZCLN-UHFFFAOYSA-N,OC(=O)CCCC(O)=O,1.0832
612,B-613,diisobutylamine,"InChI=1S/C8H19N/c1-5-7(3)9-8(4)6-2/h7-9H,5-6H2,1-4H3/p+1/t7-,8+",OBYVIBDTOCAXSN-OCAPTIKFSA-O,CC[C@H](C)[NH2+][C@H](C)CC,-1.7690000000000001
613,B-614,diisopropanolamine,"InChI=1S/C6H15NO2/c1-5(8)3-7-4-6(2)9/h5-9H,3-4H2,1-2H3",LVTYICIALWPMFW-UHFFFAOYSA-N,CC(O)CNCC(C)O,0.81
614,B-615,"acetic acid, 2,2'-oxybis-","InChI=1S/C4H6O5/c5-3(6)1-9-2-4(7)8/h1-2H2,(H,5,6)(H,7,8)",QEVGZEDELICMKH-UHFFFAOYSA-N,OC(=O)COCC(O)=O,0.4927
615,B-616,methyl octanoate,"InChI=1S/C9H18O2/c1-3-4-5-6-7-8-9(10)11-2/h3-8H2,1-2H3",JGHZJRVDZXSNKQ-UHFFFAOYSA-N,CCCCCCCC(=O)OC,-3.3904
616,B-617,heptanoic acid,"InChI=1S/C7H14O2/c1-2-3-4-5-6-7(8)9/h2-6H2,1H3,(H,8,9)",MNWFXJYAOYHMED-UHFFFAOYSA-N,CCCCCCC(O)=O,-1.6646
617,B-618,ethoxyethylacetate,"InChI=1S/C6H12O3/c1-3-8-4-5-9-6(2)7/h3-5H2,1-2H3",SVONRAPFKPVNKG-UHFFFAOYSA-N,CCOCCOC(C)=O,0.2716
618,B-619,"propanoic acid, 3,3'-thiobis-","InChI=1S/C6H10O4S/c7-5(8)1-3-11-4-2-6(9)10/h1-4H2,(H,7,8)(H,9,10)",ODJQKYXPKWQWNK-UHFFFAOYSA-N,OC(=O)CCSCCC(O)=O,-0.6807
619,B-620,decanedioic acid,"InChI=1S/C10H18O4/c11-9(12)7-5-3-1-2-4-6-8-10(13)14/h1-8H2,(H,11,12)(H,13,14)",CXMXRPHRNRROMY-UHFFFAOYSA-N,OC(=O)CCCCCCCCC(O)=O,-2.3059
620,B-621,"triethylene glycol, dinitrate",InChI=1S/C6H12N2O8/c9-7(10)15-5-3-13-1-2-14-4-6-16-8(11)12/h1-6H2,AGCQZYRSTIRJFM-UHFFFAOYSA-N,[O-][N+](=O)OCCOCCOCCO[N+]([O-])=O,-1.561
621,B-622,butyl vinyl ether,"InChI=1S/C6H12O/c1-3-5-6-7-4-2/h4H,2-3,5-6H2,1H3",UZKWTJUDCOPSNM-UHFFFAOYSA-N,CCCCOC=C,-1.5236
622,B-623,diethylenetriamine,"InChI=1S/C4H13N3/c5-1-3-7-4-2-6/h7H,1-6H2",RPNUMPOLZDHAAY-UHFFFAOYSA-N,NCCNCCN,0.9864
623,B-624,2-(2-aminoethylamino)ethanol,"InChI=1S/C4H12N2O/c5-1-2-6-3-4-7/h6-7H,1-5H2",LHIJANUOQQMGNT-UHFFFAOYSA-N,NCCNCCO,0.9823
624,B-625,diethanolamine,"InChI=1S/C4H11NO2/c6-3-1-5-2-4-7/h5-7H,1-4H2",ZBCBWPMODOFKDW-UHFFFAOYSA-N,OCCNCCO,0.9782
625,B-626,diethylene glycol,"InChI=1S/C4H10O3/c5-1-3-7-4-2-6/h5-6H,1-4H2",MTHSVFCYNBDYFN-UHFFFAOYSA-N,OCCOCCO,0.9742
626,B-627,"2,2'-thiobisethanol","InChI=1S/C4H10O2S/c5-1-3-7-4-2-6/h5-6H,1-4H2",YODZTKMDCQEPHD-UHFFFAOYSA-N,OCCSCCO,0.9129999999999999
627,B-628,hexamethyleneimine,"InChI=1S/C6H13N/c1-2-4-6-7-5-3-1/h7H,1-6H2",ZSIQJIWKELUFRJ-UHFFFAOYSA-N,C1CCCNCC1,0.23399999999999999