,ID,Name,InChI,InChIKey,SMILES,Solubility
3272,B-3273,isoxaben,"InChI=1S/C18H24N2O4/c1-6-18(3,7-2)14-11-15(24-20-14)19-17(21)16-12(22-4)9-8-10-13(16)23-5/h8-11H,6-7H2,1-5H3,(H,19,21)",PMHURSZHKKJGBM-UHFFFAOYSA-N,CCC(C)(CC)c1cc(NC(=O)c2c(OC)cccc2OC)on1,-5.3694
3273,B-3274,"1-butanol, 3-ethoxy-","InChI=1S/C6H14O2/c1-3-8-6(2)4-5-7/h6-7H,3-5H2,1-2H3",UTVOVDXBOIGHTP-UHFFFAOYSA-N,CCOC(C)CCO,-0.3736
3274,B-3275,bifenthrin,"InChI=1S/C23H22ClF3O2/c1-14-16(10-7-11-17(14)15-8-5-4-6-9-15)13-29-21(28)20-18(22(20,2)3)12-19(24)23(25,26)27/h4-12,18,20H,13H2,1-3H3/b19-12-",OMFRMAHOUUJSGP-UNOMPAQXSA-N,Cc1c(COC(=O)C2C(\C=C(/Cl)C(F)(F)F)C2(C)C)cccc1c3ccccc3,-6.6262
3275,B-3276,benzofenap,"InChI=1S/C22H20Cl2N2O3/c1-12-5-7-15(8-6-12)18(27)11-29-22-19(14(3)25-26(22)4)21(28)16-9-10-17(23)13(2)20(16)24/h5-10H,11H2,1-4H3",JDWQITFHZOBBFE-UHFFFAOYSA-N,Cn1nc(C)c(C(=O)c2ccc(Cl)c(C)c2Cl)c1OCC(=O)c3ccc(C)cc3,-6.5209
3276,B-3277,bensulfuron-methyl (ph7),"InChI=1S/C16H18N4O7S/c1-25-12-8-13(26-2)18-15(17-12)19-16(22)20-28(23,24)9-10-6-4-5-7-11(10)14(21)27-3/h4-8H,9H2,1-3H3,(H2,17,18,19,20,22)",XMQFTWRPUQYINF-UHFFFAOYSA-N,COC(=O)c1ccccc1C[S](=O)(=O)NC(=O)Nc2nc(OC)cc(OC)n2,-3.534
3277,B-3278,teflubenzuron,"InChI=1S/C14H6Cl2F4N2O2/c15-5-4-8(12(20)10(16)11(5)19)21-14(24)22-13(23)9-6(17)2-1-3-7(9)18/h1-4H,(H2,21,22,23,24)",CJDWRQLODFKPEL-UHFFFAOYSA-N,Fc1cccc(F)c1C(=O)NC(=O)Nc2cc(Cl)c(F)c(Cl)c2F,-7.3023
3278,B-3279,alanycarb,"InChI=1S/C17H25N3O4S2/c1-5-23-16(21)11-12-20(13-15-9-7-6-8-10-15)26-19(3)17(22)24-18-14(2)25-4/h6-10H,5,11-13H2,1-4H3/b18-14-",GMAUQNJOSOMMHI-JXAWBTAJSA-N,CCOC(=O)CCN(Cc1ccccc1)SN(C)C(=O)O\N=C(\C)SC,-4.3005
3279,B-3280,diflufenican,"InChI=1S/C19H11F5N2O2/c20-12-6-7-16(15(21)10-12)26-17(27)14-5-2-8-25-18(14)28-13-4-1-3-11(9-13)19(22,23)24/h1-10H,(H,26,27)",WYEHFWKAOXOVJD-UHFFFAOYSA-N,Fc1ccc(NC(=O)c2cccnc2Oc3cccc(c3)C(F)(F)F)c(F)c1,-6.8969
3280,B-3281,"2-propenoic acid, 3-bromo-2,3-diiodo-","InChI=1S/C3HBrI2O2/c4-2(6)1(5)3(7)8/h(H,7,8)",BWTBNELHFHOXGK-UHFFFAOYSA-N,OC(=O)C(I)=C(Br)I,-1.2891
3281,B-3282,uniconazole-p,"InChI=1S/C15H18ClN3O/c1-15(2,3)14(20)13(19-10-17-9-18-19)8-11-4-6-12(16)7-5-11/h4-10,14,20H,1-3H3/b13-8+/t14-/m1/s1",YNWVFADWVLCOPU-MAUPQMMJSA-N,CC(C)(C)[C@H](O)\C(=C/c1ccc(Cl)cc1)n2cncn2,-4.5403
3282,B-3283,uniconazole,"InChI=1S/C15H18ClN3O/c1-15(2,3)14(20)13(19-10-17-9-18-19)8-11-4-6-12(16)7-5-11/h4-10,14,20H,1-3H3/b13-8+",YNWVFADWVLCOPU-MDWZMJQESA-N,CC(C)(C)C(O)\C(=C/c1ccc(Cl)cc1)n2cncn2,-4.5403
3283,B-3284,diniconazole,"InChI=1S/C15H17Cl2N3O/c1-15(2,3)14(21)13(20-9-18-8-19-20)6-10-4-5-11(16)7-12(10)17/h4-9,14,21H,1-3H3/b13-6+",FBOUIAKEJMZPQG-AWNIVKPZSA-N,CC(C)(C)C(O)\C(=C/c1ccc(Cl)cc1Cl)n2cncn2,-4.9115
3284,B-3285,phosmethylan,"InChI=1S/C13H19ClNO3PS2/c1-4-7-13(16)15(10-21-19(20,17-2)18-3)12-9-6-5-8-11(12)14/h5-6,8-9H,4,7,10H2,1-3H3",MVBGKYGTNGPFHT-UHFFFAOYSA-N,CCCC(=O)N(CS[P](=S)(OC)OC)c1ccccc1Cl,-5.204
3285,B-3286,"8-quinolinecarboxylic acid, 5-nitro-","InChI=1S/C10H6N2O4/c13-10(14)7-3-4-8(12(15)16)6-2-1-5-11-9(6)7/h1-5H,(H,13,14)",HXHZCOASPJWXPP-UHFFFAOYSA-N,OC(=O)c1ccc(c2cccnc12)[N+]([O-])=O,-3.1656
3286,B-3287,chlozolinate,"InChI=1S/C13H11Cl2NO5/c1-3-20-11(18)13(2)10(17)16(12(19)21-13)9-5-7(14)4-8(15)6-9/h4-6H,3H2,1-2H3",IGUYEXXAGBDLLX-UHFFFAOYSA-N,CCOC(=O)C1(C)OC(=O)N(C1=O)c2cc(Cl)cc(Cl)c2,-5.2203
3287,B-3288,"ethanol, 2-[(2-amino-9h-purin-9-yl)methoxy]-","InChI=1S/C8H11N5O2/c9-8-10-3-6-7(12-8)13(4-11-6)5-15-2-1-14/h3-4,14H,1-2,5H2,(H2,9,10,12)",OKQHSIGMOWQUIK-UHFFFAOYSA-N,Nc1ncc2ncn(COCCO)c2n1,-1.0775
3288,B-3289,clomeprop,"InChI=1S/C16H15Cl2NO2/c1-10-13(17)8-9-14(15(10)18)21-11(2)16(20)19-12-6-4-3-5-7-12/h3-9,11H,1-2H3,(H,19,20)",BDQWWOHKFDSADC-UHFFFAOYSA-N,CC(Oc1ccc(Cl)c(C)c1Cl)C(=O)Nc2ccccc2,-7.0057
3289,B-3290,"1-pentanesulfinothioic acid, s-pentyl ester","InChI=1S/C10H22OS2/c1-3-5-7-9-12-13(11)10-8-6-4-2/h3-10H2,1-2H3",UXGUHQNYRZMSQI-UHFFFAOYSA-N,CCCCCS[S](=O)CCCCC,-3.1711
3290,B-3291,"pentanal, 5-methoxy-","InChI=1S/C6H12O2/c1-8-6-4-2-3-5-7/h5H,2-4,6H2,1H3",KCCMPTAMMUQNSK-UHFFFAOYSA-N,COCCCCC=O,0.4574
3291,B-3292,"benzenemethanol, 2,4-dichloro-, propanoate","InChI=1S/C10H10Cl2O2/c1-2-10(13)14-6-7-3-4-8(11)5-9(7)12/h3-5H,2,6H2,1H3",ABVWCZFYRJJFFG-UHFFFAOYSA-N,CCC(=O)OCc1ccc(Cl)cc1Cl,-3.0665
3292,B-3293,flusilazole,"InChI=1S/C16H15F2N3Si/c1-22(12-21-11-19-10-20-21,15-6-2-13(17)3-7-15)16-8-4-14(18)5-9-16/h2-11H,12H2,1H3",FQKUGOMFVDPBIZ-UHFFFAOYSA-N,C[Si](Cn1cncn1)(c2ccc(F)cc2)c3ccc(F)cc3,-3.7665
3293,B-3294,ciprofloxacin,"InChI=1S/C17H18FN3O3/c18-13-7-11-14(8-15(13)20-5-3-19-4-6-20)21(10-1-2-10)9-12(16(11)22)17(23)24/h7-10,19H,1-6H2,(H,23,24)",MYSWGUAQZAJSOK-UHFFFAOYSA-N,OC(=O)C1=CN(C2CC2)c3cc(N4CCNCC4)c(F)cc3C1=O,-1.0432
3294,B-3295,esprocarb,"InChI=1S/C15H23NOS/c1-5-16(13(4)12(2)3)15(17)18-11-14-9-7-6-8-10-14/h6-10,12-13H,5,11H2,1-4H3",BXEHUCNTIZGSOJ-UHFFFAOYSA-N,CCN(C(C)C(C)C)C(=O)SCc1ccccc1,-4.7337
3295,B-3296,primisulfuron-methyl,"InChI=1S/C15H12F4N4O7S/c1-28-11(24)7-4-2-3-5-8(7)31(26,27)23-15(25)22-14-20-9(29-12(16)17)6-10(21-14)30-13(18)19/h2-6,12-13H,1H3,(H2,20,21,22,23,25)",ZTYVMAQSHCZXLF-UHFFFAOYSA-N,COC(=O)c1ccccc1[S](=O)(=O)NC(=O)Nc2nc(OC(F)F)cc(OC(F)F)n2,-5.152
3296,B-3297,imibenconazole,"InChI=1S/C17H13Cl3N4S/c18-13-3-1-12(2-4-13)9-25-17(8-24-11-21-10-22-24)23-16-6-5-14(19)7-15(16)20/h1-7,10-11H,8-9H2",AGKSTYPVMZODRV-UHFFFAOYSA-N,Clc1ccc(CSC(Cn2cncn2)=Nc3ccc(Cl)cc3Cl)cc1,-5.3842
3297,B-3298,propisochlor,"InChI=1S/C15H22ClNO2/c1-5-13-8-6-7-12(4)15(13)17(14(18)9-16)10-19-11(2)3/h6-8,11H,5,9-10H2,1-4H3",KZNDFYDURHAESM-UHFFFAOYSA-N,CCc1cccc(C)c1N(COC(C)C)C(=O)CCl,-3.1882
3298,B-3299,fluazuron,"InChI=1S/C20H10Cl2F5N3O3/c21-11-5-4-10(29-19(32)30-17(31)16-13(23)2-1-3-14(16)24)7-15(11)33-18-12(22)6-9(8-28-18)20(25,26)27/h1-8H,(H2,29,30,31,32)",YOWNVPAUWYHLQX-UHFFFAOYSA-N,Fc1cccc(F)c1C(=O)NC(=O)Nc2ccc(Cl)c(Oc3ncc(cc3Cl)C(F)(F)F)c2,-7.4033
3299,B-3300,"carbamic acid, (3,4-diethoxyphenyl)-, 1-methylet","InChI=1S/C14H21NO4/c1-5-17-12-8-7-11(9-13(12)18-6-2)15-14(16)19-10(3)4/h7-10H,5-6H2,1-4H3,(H,15,16)",LNJNFVJKDJYTEU-UHFFFAOYSA-N,CCOc1ccc(NC(=O)OC(C)C)cc1OCC,-4.0022
3300,B-3301,haloxyfop-etotyl,"InChI=1S/C19H19ClF3NO5/c1-3-26-8-9-27-18(25)12(2)28-14-4-6-15(7-5-14)29-17-16(20)10-13(11-24-17)19(21,22)23/h4-7,10-12H,3,8-9H2,1-2H3",MIJLZGZLQLAQCM-UHFFFAOYSA-N,CCOCCOC(=O)C(C)Oc1ccc(Oc2ncc(cc2Cl)C(F)(F)F)cc1,-5.8739
3301,B-3302,butenachlor,"InChI=1S/C17H24ClNO2/c1-4-7-11-21-13-19(16(20)12-18)17-14(5-2)9-8-10-15(17)6-3/h4,7-10H,5-6,11-13H2,1-3H3/b7-4-",HZDIJTXDRLNTIS-DAXSKMNVSA-N,CCc1cccc(CC)c1N(COC\C=C/C)C(=O)CCl,-4.0287
3302,B-3303,flumiclorac-pentyl,"InChI=1S/C21H23ClFNO5/c1-2-3-6-9-28-19(25)12-29-18-11-17(16(23)10-15(18)22)24-20(26)13-7-4-5-8-14(13)21(24)27/h10-11H,2-9,12H2,1H3",IRECWLYBCAZIJM-UHFFFAOYSA-N,CCCCCOC(=O)COc1cc(N2C(=O)C3=C(CCCC3)C2=O)c(F)cc1Cl,-6.3508
3303,B-3304,dimethenamid,"InChI=1S/C12H18ClNO2S/c1-8-7-17-10(3)12(8)14(11(15)5-13)9(2)6-16-4/h7,9H,5-6H2,1-4H3",JLYFCTQDENRSOL-UHFFFAOYSA-N,COCC(C)N(C(=O)CCl)c1c(C)scc1C,-2.3614
3304,B-3305,isoxapyrifop,"InChI=1S/C17H16Cl2N2O4/c1-11(17(22)21-7-2-8-23-21)24-13-3-5-14(6-4-13)25-16-15(19)9-12(18)10-20-16/h3-6,9-11H,2,7-8H2,1H3",ANFHKXSOSRDDRQ-UHFFFAOYSA-N,CC(Oc1ccc(Oc2ncc(Cl)cc2Cl)cc1)C(=O)N3CCCO3,-4.5922
3305,B-3306,cinmethylin,"InChI=1S/C18H26O2/c1-13(2)18-10-9-17(4,20-18)16(11-18)19-12-15-8-6-5-7-14(15)3/h5-8,13,16H,9-12H2,1-4H3",QMTNOLKHSWIQBE-UHFFFAOYSA-N,CC(C)C12CCC(C)(O1)C(C2)OCc3ccccc3C,-3.6391
3306,B-3307,fluxofenim,"InChI=1S/C12H11ClF3NO3/c13-9-3-1-8(2-4-9)11(12(14,15)16)17-20-7-10-18-5-6-19-10/h1-4,10H,5-7H2/b17-11+",UKSLKNUCVPZQCQ-GZTJUZNOSA-N,FC(F)(F)C(=N/OCC1OCCO1)/c2ccc(Cl)cc2,-4.0138
3307,B-3308,"acrylic acid, 2,3-dibromo-3-chloro-","InChI=1S/C3HBr2ClO2/c4-1(2(5)6)3(7)8/h(H,7,8)",WQSDAEICEKYSPL-UHFFFAOYSA-N,OC(=O)C(Br)=C(Cl)Br,-1.0071
3308,B-3309,"acrylic acid, 3,3-dibromo-2-chloro-","InChI=1S/C3HBr2ClO2/c4-2(5)1(6)3(7)8/h(H,7,8)",NHSPPJFIJJWVTN-UHFFFAOYSA-N,OC(=O)C(Cl)=C(Br)Br,-0.6873
3309,B-3310,"propanol 1 (or 2)-2-methoxymethyl ethoxy, acetat","InChI=1S/C9H18O4/c1-4-9(13-8(2)10)12-7-5-6-11-3/h9H,4-7H2,1-3H3",USDXBNSCKZJDLC-UHFFFAOYSA-N,CCC(OCCCOC)OC(C)=O,0.0085
3310,B-3311,"2-propanol, 1,1-dinitro-","InChI=1S/C3H6N2O5/c1-2(6)3(4(7)8)5(9)10/h2-3,6H,1H3",KRCTVRKGIUYGJG-UHFFFAOYSA-N,CC(O)C([N+]([O-])=O)[N+]([O-])=O,0.0789
3311,B-3312,ferimzone,"InChI=1S/C15H18N4/c1-10-7-5-6-8-14(10)13(4)18-19-15-16-11(2)9-12(3)17-15/h5-9H,1-4H3,(H,16,17,19)/b18-13-",GOWLARCWZRESHU-AQTBWJFISA-N,Cc1cc(C)nc(N\N=C(\C)c2ccccc2C)n1,-3.1959
3312,B-3313,"purine-2,8(3h,9h)-dione, 3-methyl-","InChI=1S/C6H6N4O2/c1-10-4-3(2-7-6(10)12)8-5(11)9-4/h2H,1H3,(H2,8,9,11)",RWTDELNZTAXKEW-UHFFFAOYSA-N,CN1C(=O)N=CC2=C1NC(=O)N2,-0.794
3313,B-3314,triadimenol (diastereoisomer a),"InChI=1S/C14H18ClN3O2/c1-14(2,3)12(19)13(18-9-16-8-17-18)20-11-6-4-10(15)5-7-11/h4-9,12-13,19H,1-3H3/t12-,13-/m0/s1",BAZVSMNPJJMILC-STQMWFEESA-N,CC(C)(C)[C@@H](O)[C@H](Oc1ccc(Cl)cc1)n2cncn2,-3.6786
3314,B-3315,(+)(r)-6-hydroxy-4-methyl-caproaldehyde,"InChI=1S/C7H14O2/c1-7(4-6-9)3-2-5-8/h5,7,9H,2-4,6H2,1H3/t7-/m1/s1",UBEQHGSYADUQGL-SSDOTTSWSA-N,C[C@@H](CCO)CCC=O,-1.0732
3315,B-3316,"2(3h)-pteridinone, 3-methyl-","InChI=1S/C7H6N4O/c1-11-4-5-6(10-7(11)12)9-3-2-8-5/h2-4H,1H3",PSYNZCWBYCLDGC-UHFFFAOYSA-N,CN1C=C2N=CC=NC2=NC1=O,-0.9089
3316,B-3317,"5-isobenzofurancarbonitrile, 1,3-dihydro-3-oxo-","InChI=1S/C9H5NO2/c10-4-6-1-2-7-5-12-9(11)8(7)3-6/h1-3H,5H2",SHFPTPKYWROKQJ-UHFFFAOYSA-N,O=C1OCc2ccc(cc12)C#N,-2.7021
3317,B-3318,"1-propanol, 2,2-bis(ethylsulfonyl)-","InChI=1S/C7H16O5S2/c1-4-13(9,10)7(3,6-8)14(11,12)5-2/h8H,4-6H2,1-3H3",MKNPCLDRRSFQTC-UHFFFAOYSA-N,CC[S](=O)(=O)C(C)(CO)[S](=O)(=O)CC,-0.1653
3318,B-3319,"benzaldehyde, 2-amino-4-hydroxy-3-methoxy-","InChI=1S/C8H9NO3/c1-12-8-6(11)3-2-5(4-10)7(8)9/h2-4,11H,9H2,1H3",PNKIOGYYVJRTML-UHFFFAOYSA-N,COc1c(N)c(C=O)ccc1O,-0.2232
3319,B-3320,"phthalic acid, 4-nitro-, 1-methyl ester","InChI=1S/C9H7NO6/c1-16-9(13)6-3-2-5(10(14)15)4-7(6)8(11)12/h2-4H,1H3,(H,11,12)/p-1",CEEJSCAKNYSVHF-UHFFFAOYSA-M,COC(=O)c1ccc(cc1C([O-])=O)[N+]([O-])=O,-2.0558
3320,B-3321,"glutamic acid, n-(2-cyanoethyl)-","InChI=1S/C8H12N2O4/c9-4-1-5-10-6(8(13)14)2-3-7(11)12/h6,10H,1-3,5H2,(H,11,12)(H,13,14)/t6-/m0/s1",DDTCLMFTBAHLCY-LURJTMIESA-N,OC(=O)CC[C@H](NCCC#N)C(O)=O,-1.3015
3321,B-3322,"barbituric acid, 5-acetonyl-5-ethyl-","InChI=1S/C9H12N2O4/c1-3-9(4-5(2)12)6(13)10-8(15)11-7(9)14/h3-4H2,1-2H3,(H2,10,11,13,14,15)",MMACXIHIWOQNOV-UHFFFAOYSA-N,CCC1(CC(C)=O)C(=O)NC(=O)NC1=O,-0.7661
3322,B-3323,"nonanoic acid, 2,3-dihydroxy-","InChI=1S/C9H18O4/c1-2-3-4-5-6-7(10)8(11)9(12)13/h7-8,10-11H,2-6H2,1H3,(H,12,13)",ALUALOYLCXZDMJ-UHFFFAOYSA-N,CCCCCCC(O)C(O)C(O)=O,-1.5469
3323,B-3324,quinmerac,"InChI=1S/C11H8ClNO2/c1-6-4-7-2-3-8(12)9(11(14)15)10(7)13-5-6/h2-5H,1H3,(H,14,15)",ALZOLUNSQWINIR-UHFFFAOYSA-N,Cc1cnc2c(ccc(Cl)c2C(O)=O)c1,-2.9973
3324,B-3325,"isoleucine, n-(2-cyanoethyl)-","InChI=1S/C9H16N2O2/c1-3-7(2)8(9(12)13)11-6-4-5-10/h7-8,11H,3-4,6H2,1-2H3,(H,12,13)/t7-,8-/m0/s1",SYLKPFKVJHIHES-YUMQZZPRSA-N,CC[C@H](C)[C@H](NCCC#N)C(O)=O,-0.9818
3325,B-3326,"2-pteridinol, 6,7-diethyl-","InChI=1S/C10H12N4O/c1-3-6-7(4-2)13-9-8(12-6)5-11-10(15)14-9/h5H,3-4H2,1-2H3,(H,11,13,14,15)",GSGKUGGVXZDGBA-UHFFFAOYSA-N,CCc1nc2cnc(O)nc2nc1CC,-2.2644
3326,B-3327,"propanoic acid, 2-(cyclohexyloxy)-2-methyl-","InChI=1S/C10H18O3/c1-10(2,9(11)12)13-8-6-4-3-5-7-8/h8H,3-7H2,1-2H3,(H,11,12)",OKFRDMBIDGPCCX-UHFFFAOYSA-N,CC(C)(OC1CCCCC1)C(O)=O,-1.0798
3327,B-3328,"hydrocinnamic acid, .beta.-methoxy-","InChI=1S/C10H12O3/c1-13-9(7-10(11)12)8-5-3-2-4-6-8/h2-6,9H,7H2,1H3,(H,11,12)",HVLYJUCOMBTMTA-UHFFFAOYSA-N,COC(CC(O)=O)c1ccccc1,-1.6952
3328,B-3329,"cyclohexane-1,3-dione, 2-nitro-5-phenyl-","InChI=1S/C12H11NO4/c14-10-6-9(8-4-2-1-3-5-8)7-11(15)12(10)13(16)17/h1-5,9,12H,6-7H2",ZZPALFUTTVIEEB-UHFFFAOYSA-N,[O-][N+](=O)C1C(=O)CC(CC1=O)c2ccccc2,-1.6688
3329,B-3330,"malonamide, 2,2-dihydroxy-n,n'diphenyl-","InChI=1S/C15H14N2O4/c18-13(16-11-7-3-1-4-8-11)15(20,21)14(19)17-12-9-5-2-6-10-12/h1-10,20-21H,(H,16,18)(H,17,19)",LBGDJUYHCRTMQV-UHFFFAOYSA-N,OC(O)(C(=O)Nc1ccccc1)C(=O)Nc2ccccc2,-2.4568
3330,B-3331,"barbituric acid, 5-(2-butenyl)-1,5-dimethyl-","InChI=1S/C10H14N2O3/c1-4-5-6-10(2)7(13)11-9(15)12(3)8(10)14/h4-5H,6H2,1-3H3,(H,11,13,15)",FSAOWPPKPPPONF-UHFFFAOYSA-N,CC=CCC1(C)C(=O)NC(=O)N(C)C1=O,-1.5445
3331,B-3332,2-hydroxy-but-3-enoic acid ethyl ester,"InChI=1S/C6H10O3/c1-3-5(7)6(8)9-4-2/h3,5,7H,1,4H2,2H3",HMCVHEYVNMVFDP-UHFFFAOYSA-N,CCOC(=O)C(O)C=C,0.3627
3332,B-3333,"pyran, 2,2'-oxybis[tetrahydro-6-methyl-","InChI=1S/C12H22O3/c1-9-5-3-7-11(13-9)15-12-8-4-6-10(2)14-12/h9-12H,3-8H2,1-2H3",DVRJCBOAIPILPC-UHFFFAOYSA-N,CC1CCCC(O1)OC2CCCC(C)O2,-1.1083
3333,B-3334,"phosphoric acid, methyl dipropyl ester","InChI=1S/C7H17O4P/c1-4-6-10-12(8,9-3)11-7-5-2/h4-7H2,1-3H3",KCJPXMHUFVFEGM-UHFFFAOYSA-N,CCCO[P](=O)(OC)OCCC,-0.6592
3334,B-3335,"pyrimido[5,4-d]pyrimidine-2,4,8(3h)-trione, 1,7-","InChI=1S/C9H10N4O3/c1-11-4-10-5-6(8(11)15)12(2)9(16)13(3)7(5)14/h4H,1-3H3",SYYPSBXVMCETKL-UHFFFAOYSA-N,CN1C=NC2=C(N(C)C(=O)N(C)C2=O)C1=O,-1.985
3335,B-3336,"glycine, n-naphthalene-2-sulfonyl)-","InChI=1S/C12H11NO4S/c14-12(15)8-13-18(16,17)11-6-5-9-3-1-2-4-10(9)7-11/h1-7,13H,8H2,(H,14,15)/p-1",MTFDMQASMMCFHB-UHFFFAOYSA-M,[O-]C(=O)CN[S](=O)(=O)c1ccc2ccccc2c1,-2.8497
3336,B-3337,12-butyl-benz[a]anthracene,"InChI=1S/C22H20/c1-2-3-10-21-19-11-6-5-9-17(19)15-18-14-13-16-8-4-7-12-20(16)22(18)21/h4-9,11-15H,2-3,10H2,1H3",KJVSEQDCUWFQHF-UHFFFAOYSA-N,CCCCc1c2ccccc2cc3ccc4ccccc4c13,-7.5245
3337,B-3338,"butanoic acid, 2,2-dibromo-","InChI=1S/C4H6Br2O2/c1-2-4(5,6)3(7)8/h2H2,1H3,(H,7,8)",QMHNFKJHFYCNRW-UHFFFAOYSA-N,CCC(Br)(Br)C(O)=O,-0.8722
3338,B-3339,pyrazosulfuron-ethyl,"InChI=1S/C14H18N6O7S/c1-5-27-12(21)8-7-15-20(2)11(8)28(23,24)19-14(22)18-13-16-9(25-3)6-10(17-13)26-4/h6-7H,5H2,1-4H3,(H2,16,17,18,19,22)",BGNQYGRXEXDAIQ-UHFFFAOYSA-N,CCOC(=O)c1cnn(C)c1[S](=O)(=O)NC(=O)Nc2nc(OC)cc(OC)n2,-4.4561
3339,B-3340,"glycine, n-[n-(2-naphthalenylsulfonyl)glycyl]-","InChI=1S/C14H14N2O5S/c17-13(15-9-14(18)19)8-16-22(20,21)12-6-5-10-3-1-2-4-11(10)7-12/h1-7,16H,8-9H2,(H,15,17)(H,18,19)",UDUALFJGGCLPRJ-UHFFFAOYSA-N,OC(=O)CNC(=O)CN[S](=O)(=O)c1ccc2ccccc2c1,-2.6954
3340,B-3341,cyproconazole,"InChI=1S/C15H18ClN3O/c1-11(12-2-3-12)15(20,8-19-10-17-9-18-19)13-4-6-14(16)7-5-13/h4-7,9-12,20H,2-3,8H2,1H3",UFNOUKDBUJZYDE-UHFFFAOYSA-N,CC(C1CC1)C(O)(Cn2cncn2)c3ccc(Cl)cc3,-3.3189
3341,B-3342,cyproconazole,"InChI=1S/C15H18ClN3O/c1-11(12-2-3-12)15(20,8-19-10-17-9-18-19)13-4-6-14(16)7-5-13/h4-7,9-12,20H,2-3,8H2,1H3",UFNOUKDBUJZYDE-UHFFFAOYSA-N,CC(C1CC1)C(O)(Cn2cncn2)c3ccc(Cl)cc3,-3.3189
3342,B-3343,cinosulfuron,"InChI=1S/C15H19N5O7S/c1-24-8-9-27-10-6-4-5-7-11(10)28(22,23)20-13(21)16-12-17-14(25-2)19-15(18-12)26-3/h4-7H,8-9H2,1-3H3,(H2,16,17,18,19,20,21)",WMLPCIHUFDKWJU-UHFFFAOYSA-N,COCCOc1ccccc1[S](=O)(=O)NC(=O)Nc2nc(OC)nc(OC)n2,-3.5372
3343,B-3344,cadusafos,"InChI=1S/C10H23O2PS2/c1-6-9(4)14-13(11,12-8-3)15-10(5)7-2/h9-10H,6-8H2,1-5H3",KXRPCFINVWWFHQ-UHFFFAOYSA-N,CCO[P](=O)(SC(C)CC)SC(C)CC,-3.0376
3344,B-3345,"acetic acid, (cyclopentyloxy)-","InChI=1S/C7H12O3/c8-7(9)5-10-6-3-1-2-4-6/h6H,1-5H2,(H,8,9)",JPUGGGCNNKXYCU-UHFFFAOYSA-N,OC(=O)COC1CCCC1,-0.8471
3345,B-3346,tebupirimfos,"InChI=1S/C13H23N2O3PS/c1-7-16-19(20,17-10(2)3)18-11-8-14-12(15-9-11)13(4,5)6/h8-10H,7H2,1-6H3",AWYOMXWDGWUJHS-UHFFFAOYSA-N,CCO[P](=S)(OC(C)C)Oc1cnc(nc1)C(C)(C)C,-4.7626
3346,B-3347,pyridaben,"InChI=1S/C19H25ClN2OS/c1-18(2,3)14-9-7-13(8-10-14)12-24-15-11-21-22(19(4,5)6)17(23)16(15)20/h7-11H,12H2,1-6H3",DWFZBUWUXWZWKD-UHFFFAOYSA-N,CC(C)(C)N1N=CC(=C(Cl)C1=O)SCc2ccc(cc2)C(C)(C)C,-7.483
3347,B-3348,thenylchlor,"InChI=1S/C16H18ClNO2S/c1-11-5-4-6-12(2)16(11)18(15(19)9-17)10-14-13(20-3)7-8-21-14/h4-8H,9-10H2,1-3H3",KDWQYMVPYJGPHS-UHFFFAOYSA-N,COc1ccsc1CN(C(=O)CCl)c2c(C)cccc2C,-4.4689
3348,B-3349,flurtamone,"InChI=1S/C18H14F3NO2/c1-22-17-14(12-8-5-9-13(10-12)18(19,20)21)15(23)16(24-17)11-6-3-2-4-7-11/h2-10,16,22H,1H3",NYRMIJKDBAQCHC-UHFFFAOYSA-N,CNC1=C(C(=O)C(O1)c2ccccc2)c3cccc(c3)C(F)(F)F,-3.9788
3349,B-3350,"propanamide, 2-hydroxy-n-tetradecyl-","InChI=1S/C17H35NO2/c1-3-4-5-6-7-8-9-10-11-12-13-14-15-18-17(20)16(2)19/h16,19H,3-15H2,1-2H3,(H,18,20)",BPSSWVRROCFULD-UHFFFAOYSA-N,CCCCCCCCCCCCCCNC(=O)C(C)O,-3.9784
3350,B-3351,methyl (1-phenylsulfonyl) cyclopropane carboxyla,"InChI=1S/C11H12O4S/c1-15-10(12)11(7-8-11)16(13,14)9-5-3-2-4-6-9/h2-6H,7-8H2,1H3",OACLWBSJZSLACO-UHFFFAOYSA-N,COC(=O)C1(CC1)[S](=O)(=O)c2ccccc2,-2.2601
3351,B-3352,dka-24,"InChI=1S/C10H14Cl2N2O2/c1-3-5-13-8(15)7-14(6-4-2)10(16)9(11)12/h3-4,9H,1-2,5-7H2,(H,13,15)",ZAWPDPLWGKAAHU-UHFFFAOYSA-N,ClC(Cl)C(=O)N(CC=C)CC(=O)NCC=C,-1.0397
3352,B-3353,ethametsulfuron-methyl,"InChI=1S/C15H18N6O6S/c1-4-27-15-19-12(16-2)17-13(20-15)18-14(23)21-28(24,25)10-8-6-5-7-9(10)11(22)26-3/h5-8H,4H2,1-3H3,(H3,16,17,18,19,20,21,23)",ZINJLDJMHCUBIP-UHFFFAOYSA-N,CCOc1nc(NC)nc(NC(=O)N[S](=O)(=O)c2ccccc2C(=O)OC)n1,-5.3828
3353,B-3354,dithiopyr,"InChI=1S/C15H16F5NO2S2/c1-6(2)5-7-8(13(22)24-3)10(12(16)17)21-11(15(18,19)20)9(7)14(23)25-4/h6,12H,5H2,1-4H3",YUBJPYNSGLJZPQ-UHFFFAOYSA-N,CSC(=O)c1c(CC(C)C)c(C(=O)SC)c(nc1C(F)F)C(F)(F)F,-5.4575
3354,B-3355,"1,2,4-thiadiazol-5-amine, 3-methoxy-","InChI=1S/C3H5N3OS/c1-7-3-5-2(4)8-6-3/h1H3,(H2,4,5,6)",OJCCUUWVUOCZAA-UHFFFAOYSA-N,COc1nsc(N)n1,-1.2427
3355,B-3356,"1,2,4-thiadiazole, 5-amino-3-ethoxy-","InChI=1S/C4H7N3OS/c1-2-8-4-6-3(5)9-7-4/h2H2,1H3,(H2,5,6,7)",MSMILNFZKAKCKE-UHFFFAOYSA-N,CCOc1nsc(N)n1,-0.6514
3356,B-3357,"1-propanol, 2,3-dimercapto-, 1-acetate","InChI=1S/C5H10O2S2/c1-4(6)7-2-5(9)3-8/h5,8-9H,2-3H2,1H3",JVYNLQQSMKTICB-UHFFFAOYSA-N,CC(=O)OCC(S)CS,-1.2208
3357,B-3358,"hexanamide, 2-ethylidene-","InChI=1S/C8H15NO/c1-3-5-6-7(4-2)8(9)10/h4H,3,5-6H2,1-2H3,(H2,9,10)",CBBQHYFBEMUJII-UHFFFAOYSA-N,CCCCC(=CC)C(N)=O,-1.3717
3358,B-3359,"pyrazinamide, n-2-pyrimidinyl-","InChI=1S/C9H7N5O/c15-8(7-6-10-4-5-11-7)14-9-12-2-1-3-13-9/h1-6H,(H,12,13,14,15)",UKSKIENIGGVZIP-UHFFFAOYSA-N,O=C(Nc1ncccn1)c2cnccn2,-0.3036
3359,B-3360,benoxacor,"InChI=1S/C11H11Cl2NO2/c1-7-6-16-9-5-3-2-4-8(9)14(7)11(15)10(12)13/h2-5,7,10H,6H2,1H3",PFJJMJDEVDLPNE-UHFFFAOYSA-N,CC1COc2ccccc2N1C(=O)C(Cl)Cl,-4.1141
3360,B-3361,"3-pyridinecarboxylic acid, nonyl ester","InChI=1S/C15H23NO2/c1-2-3-4-5-6-7-8-12-18-15(17)14-10-9-11-16-13-14/h9-11,13H,2-8,12H2,1H3",CPDDCIYPNIRWBG-UHFFFAOYSA-N,CCCCCCCCCOC(=O)c1cccnc1,-3.0958
3361,B-3362,fosthiazate,"InChI=1S/C9H18NO3PS2/c1-4-8(3)16-14(12,13-5-2)10-6-7-15-9(10)11/h8H,4-7H2,1-3H3",DUFVKSUJRWYZQP-UHFFFAOYSA-N,CCO[P](=O)(SC(C)CC)N1CCSC1=O,-1.4589
3362,B-3363,flumetsulam,"InChI=1S/C12H9F2N5O2S/c1-7-5-6-19-11(15-7)16-12(17-19)22(20,21)18-10-8(13)3-2-4-9(10)14/h2-6,18H,1H3",RXCPQSJAVKGONC-UHFFFAOYSA-N,Cc1ccn2nc(nc2n1)[S](=O)(=O)Nc3c(F)cccc3F,-3.8248
3363,B-3364,"pyrazinamide, n-(4-methyl-2-pyrimidinyl)-","InChI=1S/C10H9N5O/c1-7-2-3-13-10(14-7)15-9(16)8-6-11-4-5-12-8/h2-6H,1H3,(H,13,14,15,16)",XSVJUTVNSDRVBW-UHFFFAOYSA-N,Cc1ccnc(NC(=O)c2cnccn2)n1,-0.7308
3364,B-3365,sulcotrione,"InChI=1S/C14H13ClO5S/c1-21(19,20)8-5-6-9(10(15)7-8)14(18)13-11(16)3-2-4-12(13)17/h5-7,13H,2-4H2,1H3",PQTBTIFWAXVEPB-UHFFFAOYSA-N,C[S](=O)(=O)c1ccc(c(Cl)c1)C(=O)C2C(=O)CCCC2=O,-3.2994
3365,B-3366,"1(3h)-isobenzofuranone, 3,3-dimethyl-6-nitro-","InChI=1S/C10H9NO4/c1-10(2)8-4-3-6(11(13)14)5-7(8)9(12)15-10/h3-5H,1-2H3",FENLPGARWVQRJL-UHFFFAOYSA-N,CC1(C)OC(=O)c2cc(ccc12)[N+]([O-])=O,-3.0516
3366,B-3367,"phthalide, 3-ethyl-6-nitro-","InChI=1S/C10H9NO4/c1-2-9-7-4-3-6(11(13)14)5-8(7)10(12)15-9/h3-5,9H,2H2,1H3",OTOYVMKWIRQFSC-UHFFFAOYSA-N,CCC1OC(=O)c2cc(ccc12)[N+]([O-])=O,-2.55
3367,B-3368,"butanal, 3-hydroxy-2-methyl-","InChI=1S/C5H10O2/c1-4(3-6)5(2)7/h3-5,7H,1-2H3",ZURZPPULRFXVLF-UHFFFAOYSA-N,CC(O)C(C)C=O,-0.4906
3368,B-3369,"8-quinazolinol, 4-methyl-","InChI=1S/C9H8N2O/c1-6-7-3-2-4-8(12)9(7)11-5-10-6/h2-5,12H,1H3",RSHKEEMIDCYLTC-UHFFFAOYSA-N,Cc1ncnc2c(O)cccc12,-2.6025
3369,B-3370,"7(8h)-pteridinone, 6,8-dimethyl-","InChI=1S/C8H8N4O/c1-5-8(13)12(2)7-6(11-5)3-9-4-10-7/h3-4H,1-2H3",QLMHRZQMPAMXNG-UHFFFAOYSA-N,CN1C(=O)C(=Nc2cncnc12)C,-1.489
3370,B-3371,cloquintocet-mexyl,"InChI=1S/C18H22ClNO3/c1-3-4-5-7-13(2)23-17(21)12-22-16-10-9-15(19)14-8-6-11-20-18(14)16/h6,8-11,13H,3-5,7,12H2,1-2H3",COYBRKAVBMYYSF-UHFFFAOYSA-N,CCCCCC(C)OC(=O)COc1ccc(Cl)c2cccnc12,-5.7553