,ID,Name,InChI,InChIKey,SMILES,Solubility
4580,B-4581,dexamethasone acetate,"InChI=1S/C24H31FO6/c1-13-9-18-17-6-5-15-10-16(27)7-8-21(15,3)23(17,25)19(28)11-22(18,4)24(13,30)20(29)12-31-14(2)26/h7-8,10,13,17-19,28,30H,5-6,9,11-12H2,1-4H3/t13-,17+,18+,19+,21+,22+,23+,24+/m1/s1",AKUJBENLRBOFTD-RPRRAYFGSA-N,C[C@@H]1C[C@H]2[C@@H]3CCC4=CC(=O)C=C[C@]4(C)[C@@]3(F)[C@@H](O)C[C@]2(C)[C@@]1(O)C(=O)COC(C)=O,-4.9
4581,B-4582,5-fluorouracil,"InChI=1S/C4H3FN2O2/c5-2-1-6-4(9)7-3(2)8/h1H,(H2,6,7,8,9)",GHASVSINZRGABV-UHFFFAOYSA-N,FC1=CNC(=O)NC1=O,-1.0689
4582,B-4583,5-methyluracil,"InChI=1S/C5H6N2O2/c1-3-2-6-5(9)7-4(3)8/h2H,1H3,(H2,6,7,8,9)",RWQNBRDOKXIBIV-UHFFFAOYSA-N,CC1=CNC(=O)NC1=O,-1.5187
4583,B-4584,uracil,"InChI=1S/C4H4N2O2/c7-3-1-2-5-4(8)6-3/h1-2H,(H2,5,6,7,8)",ISAKRJDGNUQOIC-UHFFFAOYSA-N,O=C1NC=CC(=O)N1,-1.4933
4584,B-4585,hydantoin,"InChI=1S/C3H4N2O2/c6-2-1-4-3(7)5-2/h1H2,(H2,4,5,6,7)",WJRBRSLFGCUECM-UHFFFAOYSA-N,O=C1CNC(=O)N1,-0.4016
4585,B-4586,1-methyluracil,"InChI=1S/C5H6N2O2/c1-7-3-2-4(8)6-5(7)9/h2-3H,1H3,(H,6,8,9)",XBCXJKGHPABGSD-UHFFFAOYSA-N,CN1C=CC(=O)NC1=O,-0.7998
4586,B-4587,carbromal,"InChI=1S/C7H13BrN2O2/c1-3-7(8,4-2)5(11)10-6(9)12/h3-4H2,1-2H3,(H3,9,10,11,12)",OPNPQXLQERQBBV-UHFFFAOYSA-N,CCC(Br)(CC)C(=O)NC(N)=O,-2.8525
4587,B-4588,phenobarital,"InChI=1S/C12H12N2O3/c1-2-12(8-6-4-3-5-7-8)9(15)13-11(17)14-10(12)16/h3-7H,2H2,1H3,(H2,13,14,15,16,17)",DDBREPKUVSBGFI-UHFFFAOYSA-N,CCC1(C(=O)NC(=O)NC1=O)c2ccccc2,-2.3206
4588,B-4589,metharbital,"InChI=1S/C9H14N2O3/c1-4-9(5-2)6(12)10-8(14)11(3)7(9)13/h4-5H2,1-3H3,(H,10,12,14)",FWJKNZONDWOGMI-UHFFFAOYSA-N,CCC1(CC)C(=O)NC(=O)N(C)C1=O,-2.0005
4589,B-4590,cyclobarbital,"InChI=1S/C12H16N2O3/c1-2-12(8-6-4-3-5-7-8)9(15)13-11(17)14-10(12)16/h6H,2-5,7H2,1H3,(H2,13,14,15,16,17)",WTYGAUXICFETTC-UHFFFAOYSA-N,CCC1(C(=O)NC(=O)NC1=O)C2=CCCCC2,-2.1693
4590,B-4591,allobarbital,"InChI=1S/C10H12N2O3/c1-3-5-10(6-4-2)7(13)11-9(15)12-8(10)14/h3-4H,1-2,5-6H2,(H2,11,12,13,14,15)",FDQGNLOWMMVRQL-UHFFFAOYSA-N,C=CCC1(CC=C)C(=O)NC(=O)NC1=O,-2.0608
4591,B-4592,hexabarital,"InChI=1S/C12H16N2O3/c1-12(8-6-4-3-5-7-8)9(15)13-11(17)14(2)10(12)16/h6H,3-5,7H2,1-2H3,(H,13,15,17)",UYXAWHWODHRRMR-UHFFFAOYSA-N,CN1C(=O)NC(=O)C(C)(C1=O)C2=CCCCC2,-2.7349
4592,B-4593,amobarbital,"InChI=1S/C11H18N2O3/c1-4-11(6-5-7(2)3)8(14)12-10(16)13-9(11)15/h7H,4-6H2,1-3H3,(H2,12,13,14,15,16)",VIROVYVQCGLCII-UHFFFAOYSA-N,CCC1(CCC(C)C)C(=O)NC(=O)NC1=O,-2.5743
4593,B-4594,barbital,"InChI=1S/C8H12N2O3/c1-3-8(4-2)5(11)9-7(13)10-6(8)12/h3-4H2,1-2H3,(H2,9,10,11,12,13)",FTOAOBMCPZCFFF-UHFFFAOYSA-N,CCC1(CC)C(=O)NC(=O)NC1=O,-1.3926
4594,B-4595,pentobarbital,"InChI=1S/C11H18N2O3/c1-4-6-7(3)11(5-2)8(14)12-10(16)13-9(11)15/h7H,4-6H2,1-3H3,(H2,12,13,14,15,16)",WEXRUCMBJFQVBZ-UHFFFAOYSA-N,CCCC(C)C1(CC)C(=O)NC(=O)NC1=O,-2.5229
4595,B-4596,probarbital,"InChI=1S/C9H14N2O3/c1-4-9(5(2)3)6(12)10-8(14)11-7(9)13/h5H,4H2,1-3H3,(H2,10,11,12,13,14)",HHLXJTDUHFBYAU-UHFFFAOYSA-N,CCC1(C(C)C)C(=O)NC(=O)NC1=O,-2.2144
4596,B-4597,aprobarbital,"InChI=1S/C10H14N2O3/c1-4-5-10(6(2)3)7(13)11-9(15)12-8(10)14/h4,6H,1,5H2,2-3H3,(H2,11,12,13,14,15)",UORJNBVJVRLXMQ-UHFFFAOYSA-N,CC(C)C1(CC=C)C(=O)NC(=O)NC1=O,-1.712
4597,B-4598,phenallymal,"InChI=1S/C13H12N2O3/c1-2-8-13(9-6-4-3-5-7-9)10(16)14-12(18)15-11(13)17/h2-7H,1,8H2,(H2,14,15,16,17,18)",WOIGZSBYKGQJGL-UHFFFAOYSA-N,C=CCC1(C(=O)NC(=O)NC1=O)c2ccccc2,-2.3464
4598,B-4599,"barbituric acid, 5-et-5-amyl","InChI=1S/C11H18N2O3/c1-3-5-6-7-11(4-2)8(14)12-10(16)13-9(11)15/h3-7H2,1-2H3,(H2,12,13,14,15,16)",XYGXSCVUMIDZRR-UHFFFAOYSA-N,CCCCCC1(CC)C(=O)NC(=O)NC1=O,-2.1757
4599,B-4600,"5,5-dipropylbarbituric acid","InChI=1S/C10H16N2O3/c1-3-5-10(6-4-2)7(13)11-9(15)12-8(10)14/h3-6H2,1-2H3,(H2,11,12,13,14,15)",RCOUWKSZRXJXLA-UHFFFAOYSA-N,CCCC1(CCC)C(=O)NC(=O)NC1=O,-2.5487
4600,B-4601,3-hydroxypyridine,"InChI=1S/C5H5NO/c7-5-2-1-3-6-4-5/h1-4,7H",GRFNBEZIAWKNCO-UHFFFAOYSA-N,Oc1cccnc1,-0.4557
4601,B-4602,8-quinolinol,"InChI=1S/C9H7NO/c11-8-5-1-3-7-4-2-6-10-9(7)8/h1-6,11H",MCJGNVYPOGVAJF-UHFFFAOYSA-N,Oc1cccc2cccnc12,-2.4168
4602,B-4603,5-hydroxyquinoline,"InChI=1S/C9H7NO/c11-9-5-1-4-8-7(9)3-2-6-10-8/h1-6,11H",GYESAYHWISMZOK-UHFFFAOYSA-N,[O-]c1cccc2[nH+]cccc12,-2.5417
4603,B-4604,6-hydroxyquinoline,"InChI=1S/C9H7NO/c11-8-3-4-9-7(6-8)2-1-5-10-9/h1-6,11H",OVYWMEWYEJLIER-UHFFFAOYSA-N,Oc1ccc2ncccc2c1,-2.1618
4604,B-4605,anilazine,"InChI=1S/C9H5Cl3N4/c10-5-3-1-2-4-6(5)13-9-15-7(11)14-8(12)16-9/h1-4H,(H,13,14,15,16)",IMHBYKMAHXWHRP-UHFFFAOYSA-N,Clc1nc(Cl)nc(Nc2ccccc2Cl)n1,-4.5371
4605,B-4606,simazine,"InChI=1S/C7H12ClN5/c1-3-9-6-11-5(8)12-7(13-6)10-4-2/h3-4H2,1-2H3,(H2,9,10,11,12,13)",ODCWYMIRDDJXKW-UHFFFAOYSA-N,CCNc1nc(Cl)nc(NCC)n1,-4.1256
4606,B-4607,propazine,"InChI=1S/C9H16ClN5/c1-5(2)11-8-13-7(10)14-9(15-8)12-6(3)4/h5-6H,1-4H3,(H2,11,12,13,14,15)",WJNRPILHGGKWCK-UHFFFAOYSA-N,CC(C)Nc1nc(Cl)nc(NC(C)C)n1,-4.4267
4607,B-4608,ametryne,"InChI=1S/C9H17N5S/c1-5-10-7-12-8(11-6(2)3)14-9(13-7)15-4/h6H,5H2,1-4H3,(H2,10,11,12,13,14)",RQVYBGPQFYCBGX-UHFFFAOYSA-N,CCNc1nc(NC(C)C)nc(SC)n1,-3.0365
4608,B-4609,terbutryn,"InChI=1S/C10H19N5S/c1-6-11-7-12-8(15-10(2,3)4)14-9(13-7)16-5/h6H2,1-5H3,(H2,11,12,13,14,15)",IROINLKCQGIITA-UHFFFAOYSA-N,CCNc1nc(NC(C)(C)C)nc(SC)n1,-3.9847
4609,B-4610,simetryn,"InChI=1S/C8H15N5S/c1-4-9-6-11-7(10-5-2)13-8(12-6)14-3/h4-5H2,1-3H3,(H2,9,10,11,12,13)",MGLWZSOBALDPEK-UHFFFAOYSA-N,CCNc1nc(NCC)nc(SC)n1,-2.6758
4610,B-4611,prometon,"InChI=1S/C10H19N5O/c1-6(2)11-8-13-9(12-7(3)4)15-10(14-8)16-5/h6-7H,1-5H3,(H2,11,12,13,14,15)",ISEUFVQQFVOBCY-UHFFFAOYSA-N,COc1nc(NC(C)C)nc(NC(C)C)n1,-2.4777
4611,B-4612,atrazine,"InChI=1S/C8H14ClN5/c1-4-10-7-12-6(9)13-8(14-7)11-5(2)3/h5H,4H2,1-3H3,(H2,10,11,12,13,14)",MXWJVTOOROXGIU-UHFFFAOYSA-N,CCNc1nc(Cl)nc(NC(C)C)n1,-3.8867
4612,B-4613,trietazine,"InChI=1S/C9H16ClN5/c1-4-11-8-12-7(10)13-9(14-8)15(5-2)6-3/h4-6H2,1-3H3,(H,11,12,13,14)",HFBWPRKWDIRYNX-UHFFFAOYSA-N,CCNc1nc(Cl)nc(n1)N(CC)CC,-4.0601
4613,B-4614,desethylatrazine,"InChI=1S/C6H10ClN5/c1-3(2)9-6-11-4(7)10-5(8)12-6/h3H,1-2H3,(H3,8,9,10,11,12)",DFWFIQKMSFGDCQ-UHFFFAOYSA-N,CC(C)Nc1nc(N)nc(Cl)n1,-2.7063
4614,B-4615,prometryne,"InChI=1S/C10H19N5S/c1-6(2)11-8-13-9(12-7(3)4)15-10(14-8)16-5/h6-7H,1-5H3,(H2,11,12,13,14,15)",AAEVYOVXGOFMJO-UHFFFAOYSA-N,CSc1nc(NC(C)C)nc(NC(C)C)n1,-3.8642
4615,B-4616,cyanazine,"InChI=1S/C9H13ClN6/c1-4-12-7-13-6(10)14-8(15-7)16-9(2,3)5-11/h4H2,1-3H3,(H2,12,13,14,15,16)",MZZBPDKVEFVLFF-UHFFFAOYSA-N,CCNc1nc(Cl)nc(NC(C)(C)C#N)n1,-3.1510000000000002
4616,B-4617,terbumeton,"InChI=1S/C10H19N5O/c1-6-11-7-12-8(15-10(2,3)4)14-9(13-7)16-5/h6H2,1-5H3,(H2,11,12,13,14,15)",BCQMBFHBDZVHKU-UHFFFAOYSA-N,CCNc1nc(NC(C)(C)C)nc(OC)n1,-3.2388
4617,B-4618,2-bromopyridine,InChI=1S/C5H4BrN/c6-5-3-1-2-4-7-5/h1-4H,IMRWILPUOVGIMU-UHFFFAOYSA-N,Brc1ccccn1,-0.8806
4618,B-4619,2-chloropyridine,InChI=1S/C5H4ClN/c6-5-3-1-2-4-7-5/h1-4H,OKDGRDCXVWSXDC-UHFFFAOYSA-N,Clc1ccccn1,-0.7542
4619,B-4620,cycloleucine,"InChI=1S/C6H11NO2/c7-6(5(8)9)3-1-2-4-6/h1-4,7H2,(H,8,9)",NILQLFBWTXNUOE-UHFFFAOYSA-N,NC1(CCCC1)C(O)=O,-0.4122
4620,B-4621,methionine,"InChI=1S/C5H11NO2S/c1-9-3-2-4(6)5(7)8/h4H,2-3,6H2,1H3,(H,7,8)",FFEARJCKVFRZRR-UHFFFAOYSA-N,CSCCC(N)C(O)=O,-0.42100000000000004
4621,B-4622,dl-phenylalanine,"InChI=1S/C9H11NO2/c10-8(9(11)12)6-7-4-2-1-3-5-7/h1-5,8H,6,10H2,(H,11,12)",COLNVLDHVKWLRT-UHFFFAOYSA-N,NC(Cc1ccccc1)C(O)=O,-1.0657
4622,B-4623,valine,"InChI=1S/C5H11NO2/c1-3(2)4(6)5(7)8/h3-4H,6H2,1-2H3,(H,7,8)",KZSNJWFQEVHDMF-UHFFFAOYSA-N,CC(C)C(N)C(O)=O,-0.3016
4623,B-4624,alpha-aminobutyric acid,"InChI=1S/C4H9NO2/c1-2-3(5)4(6)7/h3H,2,5H2,1H3,(H,6,7)",QWCKQJZIFLGMSD-UHFFFAOYSA-N,CCC(N)C(O)=O,0.3109
4624,B-4625,norvaline,"InChI=1S/C5H11NO2/c1-2-3-4(6)5(7)8/h4H,2-3,6H2,1H3,(H,7,8)",SNDPXSYFESPGGJ-UHFFFAOYSA-N,CCCC(N)C(O)=O,-0.0687
4625,B-4626,glycine,"InChI=1S/C2H5NO2/c3-1-2(4)5/h1,3H2,(H,4,5)",DHMQDGOQFOQNFH-UHFFFAOYSA-N,NCC(O)=O,0.5207
4626,B-4627,alanine,"InChI=1S/C3H7NO2/c1-2(4)3(5)6/h2H,4H2,1H3,(H,5,6)",QNAYBMKLOCPYGJ-UHFFFAOYSA-N,CC(N)C(O)=O,0.265
4627,B-4628,proline,"InChI=1S/C5H9NO2/c7-5(8)4-2-1-3-6-4/h4,6H,1-3H2,(H,7,8)",ONIBWKKTOPOVIA-UHFFFAOYSA-N,OC(=O)C1CCCN1,0.1483
4628,B-4629,serine,"InChI=1S/C3H7NO3/c4-2(1-5)3(6)7/h2,5H,1,4H2,(H,6,7)",MTCFGRXMJLQNBG-UHFFFAOYSA-N,NC(CO)C(O)=O,0.6068
4629,B-4630,hydroxyproline,"InChI=1S/C5H9NO3/c7-3-1-4(5(8)9)6-2-3/h3-4,6-7H,1-2H2,(H,8,9)",PMMYEEVYMWASQN-UHFFFAOYSA-N,OC1CNC(C1)C(O)=O,0.4398
4630,B-4631,isophthalic acid,"InChI=1S/C8H6O4/c9-7(10)5-2-1-3-6(4-5)8(11)12/h1-4H,(H,9,10)(H,11,12)",QQVIHTHCMHWDBS-UHFFFAOYSA-N,OC(=O)c1cccc(c1)C(O)=O,-3.2204
4631,B-4632,"2,3-pyridinedicarboxylic acid","InChI=1S/C7H5NO4/c9-6(10)4-2-1-3-8-5(4)7(11)12/h1-3H,(H,9,10)(H,11,12)",GJAWHXHKYYXBSV-UHFFFAOYSA-N,OC(=O)c1cccnc1C(O)=O,-1.1816
4632,B-4633,"2,4-pyridinedicarboxylic acid","InChI=1S/C7H5NO4/c9-6(10)4-1-2-8-5(3-4)7(11)12/h1-3H,(H,9,10)(H,11,12)",MJIVRKPEXXHNJT-UHFFFAOYSA-N,OC(=O)c1ccnc(c1)C(O)=O,-1.8268
4633,B-4634,"2,5-pyridinedicarboxylic acid","InChI=1S/C7H5NO4/c9-6(10)4-1-2-5(7(11)12)8-3-4/h1-3H,(H,9,10)(H,11,12)",LVPMIMZXDYBCDF-UHFFFAOYSA-N,OC(=O)c1ccc(nc1)C(O)=O,-2.1296
4634,B-4635,"2,6-pyridinedicarboxylic acid","InChI=1S/C7H5NO4/c9-6(10)4-2-1-3-5(8-4)7(11)12/h1-3H,(H,9,10)(H,11,12)",WJJMNDUMQPNECX-UHFFFAOYSA-N,OC(=O)c1cccc(n1)C(O)=O,-1.5241
4635,B-4636,"3,4-pyridinedicarboxylic acid","InChI=1S/C7H5NO4/c9-6(10)4-1-2-8-3-5(4)7(11)12/h1-3H,(H,9,10)(H,11,12)",MUYSADWCWFFZKR-UHFFFAOYSA-N,OC(=O)c1ccncc1C(O)=O,-1.8538
4636,B-4637,"3,5-pyridinedicarboxylic acid","InChI=1S/C7H5NO4/c9-6(10)4-1-5(7(11)12)3-8-2-4/h1-3H,(H,9,10)(H,11,12)",MPFLRYZEEAQMLQ-UHFFFAOYSA-N,OC(=O)c1cncc(c1)C(O)=O,-2.2230000000000003
4637,B-4638,nicotinic acid,"InChI=1S/C6H5NO2/c8-6(9)5-2-1-3-7-4-5/h1-4H,(H,8,9)",PVNIIMVLHYAWGP-UHFFFAOYSA-N,OC(=O)c1cccnc1,-0.835
4638,B-4639,isonicotinic acid,"InChI=1S/C6H5NO2/c8-6(9)5-1-3-7-4-2-5/h1-4H,(H,8,9)",TWBYWOBDOCUKOW-UHFFFAOYSA-N,OC(=O)c1ccncc1,-1.3743
4639,B-4640,"1-octanesulfonamide, n-(octylsulfonyl)-","InChI=1S/C16H35NO4S2/c1-3-5-7-9-11-13-15-22(18,19)17-23(20,21)16-14-12-10-8-6-4-2/h17H,3-16H2,1-2H3",GLIMMBJQTXCOMG-UHFFFAOYSA-N,CCCCCCCC[S](=O)(=O)N[S](=O)(=O)CCCCCCCC,-3.9145
4640,B-4641,chloroacetamide,"InChI=1S/C2H4ClNO/c3-1-2(4)5/h1H2,(H2,4,5)",VXIVSQZSERGHQP-UHFFFAOYSA-N,NC(=O)CCl,-0.0166
4641,B-4642,bromoacetamide,"InChI=1S/C2H4BrNO/c3-1-2(4)5/h1H2,(H2,4,5)",JUIKUQOUMZUFQT-UHFFFAOYSA-N,NC(=O)CBr,0.0643
4642,B-4643,"butanamide, 2-chloro-2-ethyl-","InChI=1S/C6H12ClNO/c1-3-6(7,4-2)5(8)9/h3-4H2,1-2H3,(H2,8,9)",AFVUGDZUMJEIHX-UHFFFAOYSA-N,CCC(Cl)(CC)C(N)=O,-1.0289
4643,B-4644,"butanamide, 2-bromo-2-ethyl-","InChI=1S/C6H12BrNO/c1-3-6(7,4-2)5(8)9/h3-4H2,1-2H3,(H2,8,9)",ACEYAMOAGUDVAQ-UHFFFAOYSA-N,CCC(Br)(CC)C(N)=O,-1.0376
4644,B-4645,"propanamide, 2,3-dichloro-","InChI=1S/C3H5Cl2NO/c4-1-2(5)3(6)7/h2H,1H2,(H2,6,7)",SQGUQSRDWXDLIH-UHFFFAOYSA-N,NC(=O)C(Cl)CCl,-0.5138
4645,B-4646,n-methylacetanilide,"InChI=1S/C9H11NO/c1-8(11)10(2)9-6-4-3-5-7-9/h3-7H,1-2H3",LMTGCJANOQOGPI-UHFFFAOYSA-N,CN(C(C)=O)c1ccccc1,-0.951
4646,B-4647,propachlor,"InChI=1S/C11H14ClNO/c1-9(2)13(11(14)8-12)10-6-4-3-5-7-10/h3-7,9H,8H2,1-2H3",MFOUDYKPLGXPGO-UHFFFAOYSA-N,CC(C)N(C(=O)CCl)c1ccccc1,-2.4806
4647,B-4648,alachlor,"InChI=1S/C14H20ClNO2/c1-4-11-7-6-8-12(5-2)14(11)16(10-18-3)13(17)9-15/h6-8H,4-5,9-10H2,1-3H3",XCSGPAVHZFQHGE-UHFFFAOYSA-N,CCc1cccc(CC)c1N(COC)C(=O)CCl,-3.0508
4648,B-4649,butachlor,"InChI=1S/C17H26ClNO2/c1-4-7-11-21-13-19(16(20)12-18)17-14(5-2)9-8-10-15(17)6-3/h8-10H,4-7,11-13H2,1-3H3",HKPHPIREJKHECO-UHFFFAOYSA-N,CCCCOCN(C(=O)CCl)c1c(CC)cccc1CC,-4.1322
4649,B-4650,acetochlor,"InChI=1S/C14H20ClNO2/c1-4-12-8-6-7-11(3)14(12)16(10-18-5-2)13(17)9-15/h6-8H,4-5,9-10H2,1-3H3",VTNQPKFIQCLBDU-UHFFFAOYSA-N,CCOCN(C(=O)CCl)c1c(C)cccc1CC,-3.0827
4650,C-1,"neopentyl  alcohol;  2,2-dimethyl-1-propanol","InChI=1S/C5H12O/c1-5(2,3)4-6/h6H,4H2,1-3H3",KPSSIOMAKSHJJG-UHFFFAOYSA-N,CC(C)(C)CO,-0.4
4651,C-2,methyl  isothiocyanate,InChI=1S/C2H3NS/c1-3-2-4/h1H3,LGDSHSYDSCRFAB-UHFFFAOYSA-N,CN=C=S,-1.0
4652,C-3,"1,3,5-trioxane",InChI=1S/C3H6O3/c1-4-2-6-3-5-1/h1-3H2,BGJSXRVXTHVRSN-UHFFFAOYSA-N,C1OCOCO1,0.29
4653,C-4,acetamide,"InChI=1S/C2H5NO/c1-2(3)4/h1H3,(H2,3,4)",DLFVBJFMPXGRIB-UHFFFAOYSA-N,CC(N)=O,1.58
4654,C-5,bis(2-hydroxypropyl)amine,"InChI=1S/C6H15NO2/c1-5(8)3-7-4-6(2)9/h5-9H,3-4H2,1-2H3",LVTYICIALWPMFW-UHFFFAOYSA-N,CC(O)CNCC(C)O,0.81
4655,C-6,acrylamide,"InChI=1S/C3H5NO/c1-2-3(4)5/h2H,1H2,(H2,4,5)",HRPVXLWXLXDGHG-UHFFFAOYSA-N,NC(=O)C=C,0.95
4656,C-7,thiourea,"InChI=1S/CH4N2S/c2-1(3)4/h(H4,2,3,4)",UMGDCJDMYOKAJW-UHFFFAOYSA-N,NC(N)=S,0.04
4657,C-8,dimethyl  oxalate,InChI=1S/C4H6O4/c1-7-3(5)4(6)8-2/h1-2H3,LOMVENUNSWAXEN-UHFFFAOYSA-N,COC(=O)C(=O)OC,-0.29
4658,C-9,glycine,"InChI=1S/C2H5NO2/c3-1-2(4)5/h1,3H2,(H,4,5)",DHMQDGOQFOQNFH-UHFFFAOYSA-N,NCC(O)=O,0.92
4659,C-10,beta-alanine,"InChI=1S/C3H7NO2/c4-2-1-3(5)6/h1-2,4H2,(H,5,6)",UCMIRNVEIXFBKS-UHFFFAOYSA-N,NCCC(O)=O,0.79
4660,C-11,alpha-aminoisobutyric  acid;  2-methylalanine,"InChI=1S/C4H9NO2/c1-4(2,5)3(6)7/h5H2,1-2H3,(H,6,7)",FUOOLUPWFVMBKG-UHFFFAOYSA-N,CC(C)(N)C(O)=O,0.12
4661,C-12,crotonic  acid (trans);  (e)-2-butenoic acid,"InChI=1S/C4H6O2/c1-2-3-4(5)6/h2-3H,1H3,(H,5,6)/b3-2+",LDHQCZJRKDOVOX-NSCUHMNNSA-N,C\C=C\C(O)=O,-0.01
4662,C-13,"chloral  hydrate;  2,2,2-trichloro-1,1-ethanediol","InChI=1S/C2H3Cl3O2/c3-2(4,5)1(6)7/h1,6-7H",RNFNDJAIBTYOQL-UHFFFAOYSA-N,OC(O)C(Cl)(Cl)Cl,1.7
4663,C-14,menthol,"InChI=1S/C10H20O/c1-7(2)9-5-4-8(3)6-10(9)11/h7-11H,4-6H2,1-3H3",NOOLISFMXDJSKH-UHFFFAOYSA-N,CC(C)C1CCC(C)CC1O,-2.54
4664,C-15,dicyanodiamide;  cyanoguanidine,"InChI=1S/C2H4N4/c3-1-6-2(4)5/h(H4,4,5,6)",QGBSISYHAICWAH-UHFFFAOYSA-N,NC(=N)NC#N,-0.31
4665,C-16,l-arabinose,"InChI=1S/C5H10O5/c6-2-1-10-5(9)4(8)3(2)7/h2-9H,1H2",SRBFZHDQGSBBOR-UHFFFAOYSA-N,OC1COC(O)C(O)C1O,0.52
4666,C-17,butyl  carbamate,"InChI=1S/C5H11NO2/c1-2-3-4-8-5(6)7/h2-4H2,1H3,(H2,6,7)",SKKTUOZKZKCGTB-UHFFFAOYSA-N,CCCCOC(N)=O,-0.66
4667,C-18,alpha-terpineol,"InChI=1S/C10H18O/c1-8-4-6-9(7-5-8)10(2,3)11/h4,9,11H,5-7H2,1-3H3",WUOACPNHFRMFPN-UHFFFAOYSA-N,CC1=CCC(CC1)C(C)(C)O,-1.91
4668,C-19,alanine,"InChI=1S/C3H7NO2/c1-2(4)3(5)6/h2H,4H2,1H3,(H,5,6)",QNAYBMKLOCPYGJ-UHFFFAOYSA-N,CC(N)C(O)=O,0.22
4669,C-20,isobutyl  carbamate,"InChI=1S/C5H11NO2/c1-4(2)3-8-5(6)7/h4H,3H2,1-2H3,(H2,6,7)",BRUZQRBVNRKLJG-UHFFFAOYSA-N,CC(C)COC(N)=O,-0.3
4670,C-21,(-)-carveol;  5-isopropenyl-2-methyl-2-cyclohexen-1-ol,"InChI=1S/C10H16O/c1-7(2)9-5-4-8(3)10(11)6-9/h4,9-11H,1,5-6H2,2-3H3",BAVONGHXFVOKBV-UHFFFAOYSA-N,CC(=C)C1CC=C(C)C(O)C1,-1.72
4671,C-22,2-imidazolidinethione,"InChI=1S/C3H6N2S/c6-3-4-1-2-5-3/h1-2H2,(H2,4,5,6)",PDQAZBWRQCGBEV-UHFFFAOYSA-N,S=C1NCCN1,-0.71
4672,C-23,tert-butyl  carbamate,"InChI=1S/C5H11NO2/c1-5(2,3)8-4(6)7/h1-3H3,(H2,6,7)",LFKDJXLFVYVEFG-UHFFFAOYSA-N,CC(C)(C)OC(N)=O,0.1
4673,C-24,1-tetradecanol,"InChI=1S/C14H30O/c1-2-3-4-5-6-7-8-9-10-11-12-13-14-15/h15H,2-14H2,1H3",HLZKNKRTKFSKGZ-UHFFFAOYSA-N,CCCCCCCCCCCCCCO,-6.05
4674,C-25,6-aminohexanoic acid;  6-aminocaproic  acid,"InChI=1S/C6H13NO2/c7-5-3-1-2-4-6(8)9/h1-5,7H2,(H,8,9)",SLXKOJJOQWFEFD-UHFFFAOYSA-N,NCCCCCC(O)=O,0.59
4675,C-26,d-mannitol,"InChI=1S/C6H14O6/c7-1-3(9)5(11)6(12)4(10)2-8/h3-12H,1-2H2",FBPFZTCFMRRESA-UHFFFAOYSA-N,OCC(O)C(O)C(O)C(O)CO,0.07
4676,C-27,"borneol;  1,77-trimethylbicyclo[2,2,1]heptan-2-ol","InChI=1S/C10H18O/c1-9(2)7-4-5-10(9,3)8(11)6-7/h7-8,11H,4-6H2,1-3H3",DTGKSKDOIYIVQL-UHFFFAOYSA-N,CC1(C)C2CCC1(C)C(O)C2,-2.75
4677,C-28,2-aminobutanoic acid;  2-aminobutyric acid;  alpha-aminobutyric  acid,"InChI=1S/C4H9NO2/c1-2-3(5)4(6)7/h3H,2,5H2,1H3,(H,6,7)",QWCKQJZIFLGMSD-UHFFFAOYSA-N,CCC(N)C(O)=O,0.26
4678,C-29,metaldehyde;  acetaldehyde tetramer,"InChI=1S/C8H16O4/c1-5-9-6(2)11-8(4)12-7(3)10-5/h5-8H,1-4H3",GKKDCARASOJPNG-UHFFFAOYSA-N,CC1OC(C)OC(C)OC(C)O1,-2.93
4679,C-30,d-glucose;  dextrose,"InChI=1S/C6H12O6/c7-1-2-3(8)4(9)5(10)6(11)12-2/h2-11H,1H2",WQZGKKKJIJFFOK-UHFFFAOYSA-N,OCC1OC(O)C(O)C(O)C1O,0.74
4680,C-31,"1,3-diethyl-2-thiourea;  n,n'-diethylthiourea","InChI=1S/C5H12N2S/c1-3-6-5(8)7-4-2/h3-4H2,1-2H3,(H2,6,7,8)",FLVIGYVXZHLUHP-UHFFFAOYSA-N,CCNC(=S)NCC,-1.46
4681,C-32,"2,4-hexadienoic acid;  sorbic  acid","InChI=1S/C6H8O2/c1-2-3-4-5-6(7)8/h2-5H,1H3,(H,7,8)/b3-2+,5-4+",WSWCOQWTEOXDQX-MQQKCMAXSA-N,C\C=C\C=C\C(O)=O,-1.77
4682,C-33,l-serine,"InChI=1S/C3H7NO3/c4-2(1-5)3(6)7/h2,5H,1,4H2,(H,6,7)",MTCFGRXMJLQNBG-UHFFFAOYSA-N,NC(CO)C(O)=O,-0.02
4683,C-34,malonic  acid,"InChI=1S/C3H4O4/c4-2(5)1-3(6)7/h1H2,(H,4,5)(H,6,7)",OFOBLEOULBTSOW-UHFFFAOYSA-N,OC(=O)CC(O)=O,1.17
4684,C-35,trichloroacetic  acid,"InChI=1S/C2HCl3O2/c3-2(4,5)1(6)7/h(H,6,7)",YNJBWRMUSHSURL-UHFFFAOYSA-N,OC(=O)C(Cl)(Cl)Cl,0.73
4685,C-36,l-valine,"InChI=1S/C5H11NO2/c1-3(2)4(6)5(7)8/h3-4H,6H2,1-2H3,(H,7,8)",KZSNJWFQEVHDMF-UHFFFAOYSA-N,CC(C)C(N)C(O)=O,-0.3
4686,C-37,decanoic  acid;  capric  acid,"InChI=1S/C10H20O2/c1-2-3-4-5-6-7-8-9-10(11)12/h2-9H2,1H3,(H,11,12)",GHVNFZFCNZKVNT-UHFFFAOYSA-N,CCCCCCCCCC(O)=O,-3.45
4687,C-38,nitroguanidine,"InChI=1S/CH4N4O2/c2-1(3)4-5(6)7/h(H4,2,3,4)",IDCPFAYURAQKDZ-UHFFFAOYSA-N,NC(N)=N[N+]([O-])=O,-1.37
4688,C-39,l-proline,"InChI=1S/C5H9NO2/c7-5(8)4-2-1-3-6-4/h4,6H,1-3H2,(H,7,8)",ONIBWKKTOPOVIA-UHFFFAOYSA-N,OC(=O)C1CCCN1,0.15
4689,C-40,dl-norleucine;  dl-2-aminohexanoic  acid,"InChI=1S/C6H13NO2/c1-2-3-4-5(7)6(8)9/h5H,2-4,7H2,1H3,(H,8,9)",LRQKBLKVPFOOQJ-UHFFFAOYSA-N,CCCCC(N)C(O)=O,-1.06
4690,C-41,dl-leucine,"InChI=1S/C6H13NO2/c1-4(2)3-5(7)6(8)9/h4-5H,3,7H2,1-2H3,(H,8,9)",ROHFNLRQFUQHCH-UHFFFAOYSA-N,CC(C)CC(N)C(O)=O,-1.13
4691,C-42,"camphor;  1,7,7-trimethylbicyclo[2.2.1]heptan-2-one","InChI=1S/C10H16O/c1-9(2)7-4-5-10(9,3)8(11)6-7/h7H,4-6H2,1-3H3",DSSYKIVIOFKYAU-UHFFFAOYSA-N,CC1(C)C2CCC1(C)C(=O)C2,-2.09
4692,C-43,hexachloroethane,"InChI=1S/C2Cl6/c3-1(4,5)2(6,7)8",VHHHONWQHHHLTI-UHFFFAOYSA-N,ClC(Cl)(Cl)C(Cl)(Cl)Cl,-3.94
4693,C-44,cysteine,"InChI=1S/C3H7NO2S/c4-2(1-7)3(5)6/h2,7H,1,4H2,(H,5,6)",XUJNEKJLAYXESH-UHFFFAOYSA-N,NC(CS)C(O)=O,0.36
4694,C-45,glutaric  acid;  pentanedioic  acid,"InChI=1S/C5H8O4/c6-4(7)2-1-3-5(8)9/h1-3H2,(H,6,7)(H,8,9)",JFCQEDHGNNZCLN-UHFFFAOYSA-N,OC(=O)CCCC(O)=O,1.0
4695,C-46,lauric  acid;  dodecanoic acid,"InChI=1S/C12H24O2/c1-2-3-4-5-6-7-8-9-10-11-12(13)14/h2-11H2,1H3,(H,13,14)",POULHZVOKOAJMA-UHFFFAOYSA-N,CCCCCCCCCCCC(O)=O,-4.62
4696,C-47,"fumaric  acid;  (e)-2-butenedioic acid;  (e)-1,2-ethenedicarboxylic acid","InChI=1S/C4H4O4/c5-3(6)1-2-4(7)8/h1-2H,(H,5,6)(H,7,8)/b2-1+",VZCYOOQTPOCHFL-OWOJBTEDSA-N,OC(=O)/C=C/C(O)=O,-1.22
4697,C-48,succinic  acid;  butanedioic acid,"InChI=1S/C4H6O4/c5-3(6)1-2-4(7)8/h1-2H2,(H,5,6)(H,7,8)",KDYFGRWQOYBRFD-UHFFFAOYSA-N,OC(=O)CCC(O)=O,-0.17
4698,C-49,penicillamine;  2-amino-3-mercapto-3-methylbutanoic acid,"InChI=1S/C5H11NO2S/c1-5(2,9)3(6)4(7)8/h3,9H,6H2,1-2H3,(H,7,8)",VVNCNSJFMMFHPL-UHFFFAOYSA-N,CC(C)(S)C(N)C(O)=O,-0.13
4699,C-50,4-hydroxy-l-proline,"InChI=1S/C5H9NO3/c7-3-1-4(5(8)9)6-2-3/h3-4,6-7H,1-2H2,(H,8,9)",PMMYEEVYMWASQN-UHFFFAOYSA-N,OC1CNC(C1)C(O)=O,0.44
4700,C-51,l-threonine,"InChI=1S/C4H9NO3/c1-2(6)3(5)4(7)8/h2-3,6H,5H2,1H3,(H,7,8)",AYFVYJQAPQTCCC-UHFFFAOYSA-N,CC(O)C(N)C(O)=O,-0.09
4701,C-52,1-ethyl-1-nitrosourea,"InChI=1S/C3H7N3O2/c1-2-6(5-8)3(4)7/h2H2,1H3,(H2,4,7)",FUSGACRLAFQQRL-UHFFFAOYSA-N,CCN(N=O)C(N)=O,-0.96
4702,C-53,dl-methionine,"InChI=1S/C5H11NO2S/c1-9-3-2-4(6)5(7)8/h4H,2-3,6H2,1H3,(H,7,8)",FFEARJCKVFRZRR-UHFFFAOYSA-N,CSCCC(N)C(O)=O,-0.66
4703,C-54,"adipic  acid; 1,6-hexanedioic acid","InChI=1S/C6H10O4/c7-5(8)3-1-2-4-6(9)10/h1-4H2,(H,7,8)(H,9,10)",WNLRTRBMVRJNCN-UHFFFAOYSA-N,OC(=O)CCCCC(O)=O,-0.82
4704,C-55,tetradecanoic  acid;  myristic  acid,"InChI=1S/C14H28O2/c1-2-3-4-5-6-7-8-9-10-11-12-13-14(15)16/h2-13H2,1H3,(H,15,16)",TUNFSRHWOTWDNC-UHFFFAOYSA-N,CCCCCCCCCCCCCC(O)=O,-5.33
4705,C-56,"amitrole; 3-amino-1,2,4-triazole","InChI=1S/C2H4N4/c3-2-4-1-5-6-2/h1H,(H3,3,4,5,6)",KLSJWNVTNUYHDU-UHFFFAOYSA-N,NC1=N[NH]C=N1,0.52
4706,C-57,l-asparagine,"InChI=1S/C4H8N2O3/c5-2(4(8)9)1-3(6)7/h2H,1,5H2,(H2,6,7)(H,8,9)",DCXYFEDJOCDNAF-UHFFFAOYSA-N,NC(CC(N)=O)C(O)=O,-0.72
4707,C-58,palmitic acid;  hexadecanoic acid,"InChI=1S/C16H32O2/c1-2-3-4-5-6-7-8-9-10-11-12-13-14-15-16(17)18/h2-15H2,1H3,(H,17,18)",IPCSVZSSVZVIGE-UHFFFAOYSA-N,CCCCCCCCCCCCCCCC(O)=O,-6.81
4708,C-59,dl-malic acid;  dl-2-hydroxybutanedioic acid;  hydroxysuccinic acid,"InChI=1S/C4H6O5/c5-2(4(8)9)1-3(6)7/h2,5H,1H2,(H,6,7)(H,8,9)",BJEPYKJPYRNKOW-UHFFFAOYSA-N,OC(CC(O)=O)C(O)=O,0.64