,ID,Name,InChI,InChIKey,SMILES,Solubility
5431,C-782,resmethrin,"InChI=1S/C22H26O3/c1-15(2)10-19-20(22(19,3)4)21(23)25-14-17-12-18(24-13-17)11-16-8-6-5-7-9-16/h5-10,12-13,19-20H,11,14H2,1-4H3",VEMKTZHHVJILDY-UHFFFAOYSA-N,CC(C)=CC1C(C(=O)OCC2=COC(=C2)CC3=CC=CC=C3)C1(C)C,-6.95
5432,C-783,benomyl,"InChI=1S/C14H18N4O3/c1-3-4-9-15-13(19)18-11-8-6-5-7-10(11)16-12(18)17-14(20)21-2/h5-8H,3-4,9H2,1-2H3,(H,15,19)(H,16,17,20)",RIOXQFHNBCKOKP-UHFFFAOYSA-N,CCCCNC(=O)[N]1C(=NC2=C1C=CC=C2)NC(=O)OC,-4.86
5433,C-784,strychnine,"InChI=1S/C21H22N2O2/c24-18-10-16-19-13-9-17-21(6-7-22(17)11-12(13)5-8-25-16)14-3-1-2-4-15(14)23(18)20(19)21/h1-5,13,16-17,19-20H,6-11H2",QMGVPVSNSZLJIA-UHFFFAOYSA-N,O=C1CC2OCC=C3CN4CCC56C4CC3C2C5N1C7=C6C=CC=C7,-3.33
5434,C-785,"4,4'-dde;  1,1-dichloro-2,2-bis(4-chlorophenyl)ethene",InChI=1S/C14H8Cl4/c15-11-5-1-9(2-6-11)13(14(17)18)10-3-7-12(16)8-4-10/h1-8H,UCNVFOCBFJOQAL-UHFFFAOYSA-N,ClC1=CC=C(C=C1)C(=C(Cl)Cl)C2=CC=C(Cl)C=C2,-8.42
5435,C-786,testosterone  phenylbutyrate,"InChI=1S/C29H38O3/c1-28-17-15-22(30)19-21(28)11-12-23-24-13-14-26(29(24,2)18-16-25(23)28)32-27(31)10-6-9-20-7-4-3-5-8-20/h3-5,7-8,19,23-26H,6,9-18H2,1-2H3",KPKRHHWUOMEERQ-UHFFFAOYSA-N,CC12CCC3C(CCC4=CC(=O)CCC34C)C1CCC2OC(=O)CCCC5=CC=CC=C5,-5.43
5436,C-787,5'-pentanoyl-idoxuridine; 5'-pentanoyl-5-iodo-2'-deoxyuridine; 5'-pentanoyl-idu,"InChI=1S/C14H19IN2O6/c1-2-3-4-12(19)22-7-10-9(18)5-11(23-10)17-6-8(15)13(20)16-14(17)21/h6,9-11,18H,2-5,7H2,1H3,(H,16,20,21)",IXRSCWSJPFKHLV-UHFFFAOYSA-N,CCCCC(=O)OCC1OC(CC1O)N2C=C(I)C(=O)NC2=O,-3.4
5437,C-788,"3,3',4,4',5-pentachlorobiphenyl",InChI=1S/C12H5Cl5/c13-8-2-1-6(3-9(8)14)7-4-10(15)12(17)11(16)5-7/h1-5H,REHONNLQRWTIFF-UHFFFAOYSA-N,ClC1=CC=C(C=C1Cl)C2=CC(=C(Cl)C(=C2)Cl)Cl,-8.39
5438,C-789,bupirimate,"InChI=1S/C13H24N4O3S/c1-6-8-9-11-10(3)15-13(14-7-2)16-12(11)20-21(18,19)17(4)5/h6-9H2,1-5H3,(H,14,15,16)",DSKJPMWIHSOYEA-UHFFFAOYSA-N,CCCCC1=C(O[S](=O)(=O)N(C)C)N=C(NCC)N=C1C,-4.16
5439,C-790,n-(2-chlorophenyl)benzenesulfonamide,"InChI=1S/C12H10ClNO2S/c13-11-8-4-5-9-12(11)14-17(15,16)10-6-2-1-3-7-10/h1-9,14H",KMSWCQQQRKBBAH-UHFFFAOYSA-N,ClC1=CC=CC=C1N[S](=O)(=O)C2=CC=CC=C2,-4.32
5440,C-791,sulpiride,"InChI=1S/C15H23N3O4S/c1-3-18-8-4-5-11(18)10-17-15(19)13-9-12(23(16,20)21)6-7-14(13)22-2/h6-7,9,11H,3-5,8,10H2,1-2H3,(H,17,19)(H2,16,20,21)",BGRJTUBHPOOWDU-UHFFFAOYSA-N,CCN1CCCC1CNC(=O)C2=C(OC)C=CC(=C2)[S](N)(=O)=O,-2.88
5441,C-792,"2,3',4,4',5-pentachlorobiphenyl",InChI=1S/C12H5Cl5/c13-8-2-1-6(3-10(8)15)7-4-11(16)12(17)5-9(7)14/h1-5H,IUTPYMGCWINGEY-UHFFFAOYSA-N,ClC1=CC=C(C=C1Cl)C2=C(Cl)C=C(Cl)C(=C2)Cl,-8.2
5442,C-793,oxolinic  acid,"InChI=1S/C13H11NO5/c1-2-14-5-8(13(16)17)12(15)7-3-10-11(4-9(7)14)19-6-18-10/h3-5H,2,6H2,1H3,(H,16,17)",KYGZCKSPAKDVKC-UHFFFAOYSA-N,CCN1C=C(C(O)=O)C(=O)C2=C1C=C3OCOC3=C2,-4.91
5443,C-794,"2',3,4,4',5-pentachlorobiphenyl",InChI=1S/C12H5Cl5/c13-7-1-2-8(9(14)5-7)6-3-10(15)12(17)11(16)4-6/h1-5H,YAHNWSSFXMVPOU-UHFFFAOYSA-N,ClC1=CC(=C(C=C1)C2=CC(=C(Cl)C(=C2)Cl)Cl)Cl,-8.55
5444,C-795,"2,3,3',4,4'-pentachlorobiphenyl",InChI=1S/C12H5Cl5/c13-8-3-1-6(5-10(8)15)7-2-4-9(14)12(17)11(7)16/h1-5H,WIDHRBRBACOVOY-UHFFFAOYSA-N,ClC1=CC=C(C=C1Cl)C2=C(Cl)C(=C(Cl)C=C2)Cl,-8.24
5445,C-796,testosterone  phenylacetate,"InChI=1S/C27H34O3/c1-26-14-12-20(28)17-19(26)8-9-21-22-10-11-24(27(22,2)15-13-23(21)26)30-25(29)16-18-6-4-3-5-7-18/h3-7,17,21-24H,8-16H2,1-2H3",WIJSFCWRMNIREB-UHFFFAOYSA-N,CC12CCC3C(CCC4=CC(=O)CCC34C)C1CCC2OC(=O)CC5=CC=CC=C5,-4.66
5446,C-797,profluralin;  tolban,"InChI=1S/C14H16F3N3O4/c1-2-5-18(8-9-3-4-9)13-11(19(21)22)6-10(14(15,16)17)7-12(13)20(23)24/h6-7,9H,2-5,8H2,1H3",ITVQAKZNYJEWKS-UHFFFAOYSA-N,CCCN(CC1CC1)C2=C(C=C(C=C2[N+]([O-])=O)C(F)(F)F)[N+]([O-])=O,-6.54
5447,C-798,fenclofenac,"InChI=1S/C14H10Cl2O3/c15-10-5-6-13(11(16)8-10)19-12-4-2-1-3-9(12)7-14(17)18/h1-6,8H,7H2,(H,17,18)",IDKAXRLETRCXKS-UHFFFAOYSA-N,OC(=O)CC1=CC=CC=C1OC2=C(Cl)C=C(Cl)C=C2,-4.86
5448,C-799,"2,3,4,4',5-pentachlorobiphenyl",InChI=1S/C12H5Cl5/c13-7-3-1-6(2-4-7)8-5-9(14)11(16)12(17)10(8)15/h1-5H,SXZSFWHOSHAKMN-UHFFFAOYSA-N,ClC1=CC=C(C=C1)C2=C(Cl)C(=C(Cl)C(=C2)Cl)Cl,-8.09
5449,C-800,diclofenac,"InChI=1S/C14H11Cl2NO2/c15-10-5-3-6-11(16)14(10)17-12-7-2-1-4-9(12)8-13(18)19/h1-7,17H,8H2,(H,18,19)",DCOPUUMXTXDBNB-UHFFFAOYSA-N,OC(=O)CC1=C(NC2=C(Cl)C=CC=C2Cl)C=CC=C1,-3.8
5450,C-801,"2,2',4,4',5-pentachlorobiphenyl",InChI=1S/C12H5Cl5/c13-6-1-2-7(9(14)3-6)8-4-11(16)12(17)5-10(8)15/h1-5H,LMQJBFRGXHMNOX-UHFFFAOYSA-N,ClC1=CC=C(C(=C1)Cl)C2=C(Cl)C=C(Cl)C(=C2)Cl,-7.95
5451,C-802,"2,4'-dde;  1,1-dichloro-2-(2-chlorophenyl)-2-(4-chlorophenyl)ethene",InChI=1S/C14H8Cl4/c15-10-7-5-9(6-8-10)13(14(17)18)11-3-1-2-4-12(11)16/h1-8H,ZDYJWDIWLRZXDB-UHFFFAOYSA-N,ClC1=CC=C(C=C1)C(=C(Cl)Cl)C2=C(Cl)C=CC=C2,-6.36
5452,C-803,"2,7-dichlorodibenzodioxin",InChI=1S/C12H6Cl2O2/c13-7-1-3-9-11(5-7)16-10-4-2-8(14)6-12(10)15-9/h1-6H,NBFMTHWVRBOVPE-UHFFFAOYSA-N,ClC1=CC2=C(OC3=C(O2)C=CC(=C3)Cl)C=C1,-7.82
5453,C-804,"2,8-dichlorodibenzodioxin",InChI=1S/C12H6Cl2O2/c13-7-1-3-9-11(5-7)16-12-6-8(14)2-4-10(12)15-9/h1-6H,WMWJCKBJUQDYLM-UHFFFAOYSA-N,ClC1=CC2=C(OC3=C(O2)C=C(Cl)C=C3)C=C1,-7.18
5454,C-805,2-chloro-3-phenylsulfonamidopyridine,"InChI=1S/C11H9ClN2O2S/c12-11-10(7-4-8-13-11)14-17(15,16)9-5-2-1-3-6-9/h1-8,14H",YWIHZYXECGNFTQ-UHFFFAOYSA-N,ClC1=NC=CC=C1N[S](=O)(=O)C2=CC=CC=C2,-3.76
5455,C-806,hexabromobenzene,InChI=1S/C6Br6/c7-1-2(8)4(10)6(12)5(11)3(1)9,CAYGQBVSOZLICD-UHFFFAOYSA-N,BrC1=C(Br)C(=C(Br)C(=C1Br)Br)Br,-9.74
5456,C-807,quinine,"InChI=1S/C20H24N2O2/c1-3-13-12-22-9-7-14(13)10-19(22)20(23)16-6-8-21-18-5-4-15(24-2)11-17(16)18/h3-6,8,11,13-14,19-20,23H,1,7,9-10,12H2,2H3",LOUPRKONTZGTKE-UHFFFAOYSA-N,COC1=CC=C2N=CC=C(C(O)C3CC4CCN3CC4C=C)C2=C1,-2.79
5457,C-808,3-chloro-2-phenylsulfonamidopyridine,"InChI=1S/C11H9ClN2O2S/c12-10-7-4-8-13-11(10)14-17(15,16)9-5-2-1-3-6-9/h1-8H,(H,13,14)",MIPCZELJNQPXAK-UHFFFAOYSA-N,ClC1=CC=CN=C1N[S](=O)(=O)C2=CC=CC=C2,-3.17
5458,C-809,trimethoprim,"InChI=1S/C14H18N4O3/c1-19-10-5-8(6-11(20-2)12(10)21-3)4-9-7-17-14(16)18-13(9)15/h5-7H,4H2,1-3H3,(H4,15,16,17,18)",IEDVJHCEMCRBQM-UHFFFAOYSA-N,COC1=CC(=CC(=C1OC)OC)CC2=CN=C(N)N=C2N,-2.95
5459,C-810,mitomycin c,"InChI=1S/C15H18N4O5/c1-5-9(16)12(21)8-6(4-24-14(17)22)15(23-2)13-7(18-13)3-19(15)10(8)11(5)20/h6-7,13,18H,3-4,16H2,1-2H3,(H2,17,22)",NWIBSHFKIJFRCO-UHFFFAOYSA-N,COC12C(COC(N)=O)C3=C(N1CC4NC24)C(=O)C(=C(N)C3=O)C,-2.56
5460,C-811,"2,2',3,4,4'-pentachlorobiphenyl",InChI=1S/C12H5Cl5/c13-6-1-2-7(10(15)5-6)8-3-4-9(14)12(17)11(8)16/h1-5H,LACXVZHAJMVESG-UHFFFAOYSA-N,ClC1=CC=C(C(=C1)Cl)C2=C(Cl)C(=C(Cl)C=C2)Cl,-7.62
5461,C-812,betamethasone-17-valerate,"InChI=1S/C27H37FO6/c1-5-6-7-23(33)34-27(22(32)15-29)16(2)12-20-19-9-8-17-13-18(30)10-11-24(17,3)26(19,28)21(31)14-25(20,27)4/h10-11,13,16,19-21,29,31H,5-9,12,14-15H2,1-4H3",SNHRLVCMMWUAJD-UHFFFAOYSA-N,CCCCC(=O)OC1(C(C)CC2C3CCC4=CC(=O)C=CC4(C)C3(F)C(O)CC12C)C(=O)CO,-4.71
5462,C-813,"2,2',4,5,5'-pentachlorobiphenyl",InChI=1S/C12H5Cl5/c13-6-1-2-9(14)7(3-6)8-4-11(16)12(17)5-10(8)15/h1-5H,LAHWLEDBADHJGA-UHFFFAOYSA-N,ClC1=CC=C(Cl)C(=C1)C2=C(Cl)C=C(Cl)C(=C2)Cl,-7.89
5463,C-814,"2,3-dichlorodibenzodioxin",InChI=1S/C12H6Cl2O2/c13-7-5-11-12(6-8(7)14)16-10-4-2-1-3-9(10)15-11/h1-6H,YCIYTXRUZSDMRZ-UHFFFAOYSA-N,ClC1=CC2=C(OC3=C(O2)C=CC=C3)C=C1Cl,-7.23
5464,C-815,"2,3,3',4',6-pentachlorobiphenyl",InChI=1S/C12H5Cl5/c13-7-2-1-6(5-10(7)16)11-8(14)3-4-9(15)12(11)17/h1-5H,ARXHIJMGSIYYRZ-UHFFFAOYSA-N,ClC1=CC=C(C=C1Cl)C2=C(Cl)C(=CC=C2Cl)Cl,-7.65
5465,C-816,sulfathiazole;  n1-(thiazol-2-yl)sulfanilamide,"InChI=1S/C9H9N3O2S2/c10-7-1-3-8(4-2-7)16(13,14)12-9-11-5-6-15-9/h1-6H,10H2,(H,11,12)",JNMRHUJNCSQMMB-UHFFFAOYSA-N,NC1=CC=C(C=C1)[S](=O)(=O)NC2=NC=CS2,-1.9
5466,C-817,quinidine,"InChI=1S/C20H24N2O2/c1-3-13-11-22-9-7-15(13)18(12-22)20(23)16-6-8-21-19-5-4-14(24-2)10-17(16)19/h3-6,8,10,13,15,18,20,23H,1,7,9,11-12H2,2H3",AQMBZJFAYLBACQ-UHFFFAOYSA-N,COC1=CC2=C(C=CN=C2C=C1)C(O)C3CN4CCC3C(C4)C=C,-3.36
5467,C-818,"2,2',3,4,5'-pentachlorobiphenyl",InChI=1S/C12H5Cl5/c13-6-1-3-9(14)8(5-6)7-2-4-10(15)12(17)11(7)16/h1-5H,OPKYDBFRKPQCBS-UHFFFAOYSA-N,ClC1=CC(=C(Cl)C=C1)C2=C(Cl)C(=C(Cl)C=C2)Cl,-7.91
5468,C-819,"7,7-dioxo-4,5,6,7-tetrahydro-2-sulfamoylthieno[2,3-b]thiopyran","InChI=1S/C7H9NO4S3/c8-15(11,12)6-4-5-2-1-3-14(9,10)7(5)13-6/h4H,1-3H2,(H2,8,11,12)",VVSSGCCPNDSLPL-UHFFFAOYSA-N,N[S](=O)(=O)C1=CC2=C(S1)[S](=O)(=O)CCC2,-2.68
5469,C-820,ethoxzolamide;  2-sulfamoyl-6-ethoxybenzothiazole; 6-ethoxybenzothiazole-2-sulfonamide,"InChI=1S/C9H10N2O3S2/c1-2-14-6-3-4-7-8(5-6)15-9(11-7)16(10,12)13/h3-5H,2H2,1H3,(H2,10,12,13)",OUZWUKMCLIBBOG-UHFFFAOYSA-N,CCOC1=CC2=C(C=C1)N=C(S2)[S](N)(=O)=O,-4.03
5470,C-821,"2,2',3,5,5'-pentachlorobiphenyl",InChI=1S/C12H5Cl5/c13-6-1-2-10(15)8(3-6)9-4-7(14)5-11(16)12(9)17/h1-5H,CRCBRZBVCDKPGA-UHFFFAOYSA-N,ClC1=CC=C(Cl)C(=C1)C2=C(Cl)C(=CC(=C2)Cl)Cl,-7.82
5471,C-822,oxadixyl,"InChI=1S/C14H18N2O4/c1-10-5-4-6-11(2)13(10)16(12(17)9-19-3)15-7-8-20-14(15)18/h4-6H,7-9H2,1-3H3",UWVQIROCRJWDKL-UHFFFAOYSA-N,COCC(=O)N(N1CCOC1=O)C2=C(C)C=CC=C2C,-1.91
5472,C-823,"2,2',3,4,5-pentachlorobiphenyl",InChI=1S/C12H5Cl5/c13-8-4-2-1-3-6(8)7-5-9(14)11(16)12(17)10(7)15/h1-5H,AIURIRUDHVDRFQ-UHFFFAOYSA-N,ClC1=CC=CC=C1C2=C(Cl)C(=C(Cl)C(=C2)Cl)Cl,-7.21
5473,C-824,buparvaquone,"InChI=1S/C21H26O3/c1-21(2,3)14-10-8-13(9-11-14)12-17-18(22)15-6-4-5-7-16(15)19(23)20(17)24/h4-7,13-14,24H,8-12H2,1-3H3",KLLIVCPQDTYMLC-UHFFFAOYSA-N,CC(C)(C)C1CCC(CC1)CC2=C(O)C(=O)C3=C(C=CC=C3)C2=O,-7.04
5474,C-825,famotidine,"InChI=1S/C8H15N7O2S3/c9-6(15-20(12,16)17)1-2-18-3-5-4-19-8(13-5)14-7(10)11/h4H,1-3H2,(H2,9,15)(H2,12,16,17)(H4,10,11,13,14)",XUFQPHANEAPEMJ-UHFFFAOYSA-N,NC(N)=NC1=NC(=CS1)CSCCC(N)=N[S](N)(=O)=O,-2.32
5475,C-826,"4,4'-ddt","InChI=1S/C14H9Cl5/c15-11-5-1-9(2-6-11)13(14(17,18)19)10-3-7-12(16)8-4-10/h1-8,13H",YVGGHNCTFXOJCH-UHFFFAOYSA-N,ClC1=CC=C(C=C1)C(C2=CC=C(Cl)C=C2)C(Cl)(Cl)Cl,-7.25
5476,C-827,haloperidol,"InChI=1S/C21H23ClFNO2/c22-18-7-5-17(6-8-18)21(26)11-14-24(15-12-21)13-1-2-20(25)16-3-9-19(23)10-4-16/h3-10,26H,1-2,11-15H2",LNEPOXFFQSENCJ-UHFFFAOYSA-N,OC1(CCN(CCCC(=O)C2=CC=C(F)C=C2)CC1)C3=CC=C(Cl)C=C3,-4.43
5477,C-828,phenmedipham,"InChI=1S/C16H16N2O4/c1-11-5-3-6-12(9-11)18-16(20)22-14-8-4-7-13(10-14)17-15(19)21-2/h3-10H,1-2H3,(H,17,19)(H,18,20)",IDOWTHOLJBTAFI-UHFFFAOYSA-N,COC(=O)NC1=CC(=CC=C1)OC(=O)NC2=CC(=CC=C2)C,-4.81
5478,C-829,sulfisoxazole;  sulfafurazole,"InChI=1S/C11H13N3O3S/c1-7-8(2)13-17-11(7)14-18(15,16)10-5-3-9(12)4-6-10/h3-6,14H,12H2,1-2H3",NHUHCSRWZMLRLA-UHFFFAOYSA-N,CC1=NOC(=C1C)N[S](=O)(=O)C2=CC=C(N)C=C2,-3.31
5479,C-830,tebufenpyrad,"InChI=1S/C18H24ClN3O/c1-6-14-15(19)16(22(5)21-14)17(23)20-11-12-7-9-13(10-8-12)18(2,3)4/h7-10H,6,11H2,1-5H3,(H,20,23)",ZZYSLNWGKKDOML-UHFFFAOYSA-N,CCC1=N[N](C)C(=C1Cl)C(=O)NCC2=CC=C(C=C2)C(C)(C)C,-5.11
5480,C-831,"2,2',3,4,6-pentachlorobiphenyl",InChI=1S/C12H5Cl5/c13-7-4-2-1-3-6(7)10-8(14)5-9(15)11(16)12(10)17/h1-5H,QGDKRLQRLFUJPP-UHFFFAOYSA-N,ClC1=CC=CC=C1C2=C(Cl)C(=C(Cl)C=C2Cl)Cl,-7.43
5481,C-832,diflubenzuron,"InChI=1S/C14H9ClF2N2O2/c15-8-4-6-9(7-5-8)18-14(21)19-13(20)12-10(16)2-1-3-11(12)17/h1-7H,(H2,18,19,20,21)",QQQYTWIFVNKMRW-UHFFFAOYSA-N,FC1=CC=CC(=C1C(=O)NC(=O)NC2=CC=C(Cl)C=C2)F,-6.59
5482,C-833,n1-(4-ethylphenyl)sulfanilamide;  1-sulfanilamido-4-ethylbenzene,"InChI=1S/C14H16N2O2S/c1-2-11-3-7-13(8-4-11)16-19(17,18)14-9-5-12(15)6-10-14/h3-10,16H,2,15H2,1H3",JWTZQLSHXWBZJJ-UHFFFAOYSA-N,CCC1=CC=C(N[S](=O)(=O)C2=CC=C(N)C=C2)C=C1,-4.52
5483,C-834,"2,2',3,3',6-pentachlorobiphenyl",InChI=1S/C12H5Cl5/c13-7-4-5-9(15)12(17)10(7)6-2-1-3-8(14)11(6)16/h1-5H,QVWUJLANSDKRAH-UHFFFAOYSA-N,ClC1=C(Cl)C(=CC=C1)C2=C(Cl)C(=CC=C2Cl)Cl,-6.78
5484,C-835,"2,3,4,5,6-pentachlorobiphenyl",InChI=1S/C12H5Cl5/c13-8-7(6-4-2-1-3-5-6)9(14)11(16)12(17)10(8)15/h1-5H,GGMPTLAAIUQMIE-UHFFFAOYSA-N,ClC1=C(Cl)C(=C(C2=CC=CC=C2)C(=C1Cl)Cl)Cl,-7.92
5485,C-836,"2,2',4,6,6'-pentachlorobiphenyl",InChI=1S/C12H5Cl5/c13-6-4-9(16)12(10(17)5-6)11-7(14)2-1-3-8(11)15/h1-5H,MTCPZNVSDFCBBE-UHFFFAOYSA-N,ClC1=CC(=C(C(=C1)Cl)C2=C(Cl)C=CC=C2Cl)Cl,-7.32
5486,C-837,sulfamerazine;  2-sulfanilamido-4-methylpyrimidine,"InChI=1S/C11H12N4O2S/c1-8-6-7-13-11(14-8)15-18(16,17)10-4-2-9(12)3-5-10/h2-7H,12H2,1H3,(H,13,14,15)",QPPBRPIAZZHUNT-UHFFFAOYSA-N,CC1=CC=NC(=N1)N[S](=O)(=O)C2=CC=C(N)C=C2,-3.1
5487,C-838,norflurazon;  zorial,"InChI=1S/C12H9ClF3N3O/c1-17-9-6-18-19(11(20)10(9)13)8-4-2-3-7(5-8)12(14,15)16/h2-6,17H,1H3",NVGOPFQZYCNLDU-UHFFFAOYSA-N,CNC1=C(Cl)C(=O)N(N=C1)C2=CC(=CC=C2)C(F)(F)F,-3.88
5488,C-839,n1-(4-chlorophenyl)sulfanilamide,"InChI=1S/C12H11ClN2O2S/c13-9-1-5-11(6-2-9)15-18(16,17)12-7-3-10(14)4-8-12/h1-8,15H,14H2",RBJGYDGKXTYSSL-UHFFFAOYSA-N,NC1=CC=C(C=C1)[S](=O)(=O)NC2=CC=C(Cl)C=C2,-4.13
5489,C-840,prodiamine,"InChI=1S/C13H17F3N4O4/c1-3-5-18(6-4-2)11-9(19(21)22)7-8(13(14,15)16)10(17)12(11)20(23)24/h7H,3-6,17H2,1-2H3",RSVPPPHXAASNOL-UHFFFAOYSA-N,CCCN(CCC)C1=C(C(=C(C=C1[N+]([O-])=O)C(F)(F)F)N)[N+]([O-])=O,-7.07
5490,C-841,dibucaine;  cinchocaine;  nupercaine,"InChI=1S/C20H29N3O2/c1-4-7-14-25-19-15-17(16-10-8-9-11-18(16)22-19)20(24)21-12-13-23(5-2)6-3/h8-11,15H,4-7,12-14H2,1-3H3,(H,21,24)",PUFQVTATUTYEAL-UHFFFAOYSA-N,CCCCOC1=NC2=C(C=CC=C2)C(=C1)C(=O)NCCN(CC)CC,-2.82
5491,C-842,clomeprop,"InChI=1S/C16H15Cl2NO2/c1-10-13(17)8-9-14(15(10)18)21-11(2)16(20)19-12-6-4-3-5-7-12/h3-9,11H,1-2H3,(H,19,20)",BDQWWOHKFDSADC-UHFFFAOYSA-N,CC(OC1=C(Cl)C(=C(Cl)C=C1)C)C(=O)NC2=CC=CC=C2,-7.01
5492,C-843,n1-(4-methoxyphenyl)sulfanilamide;  4-methoxysulfabenzene,"InChI=1S/C13H14N2O3S/c1-18-12-6-4-11(5-7-12)15-19(16,17)13-8-2-10(14)3-9-13/h2-9,15H,14H2,1H3",PKCILPHWDZXVQT-UHFFFAOYSA-N,COC1=CC=C(N[S](=O)(=O)C2=CC=C(N)C=C2)C=C1,-4.23
5493,C-844,n1-(4-cyanophenyl)sulfanilamide;  4-cyanosulfabenzene,"InChI=1S/C13H11N3O2S/c14-9-10-1-5-12(6-2-10)16-19(17,18)13-7-3-11(15)4-8-13/h1-8,16H,15H2",PLPNDNWDSGFETI-UHFFFAOYSA-N,NC1=CC=C(C=C1)[S](=O)(=O)NC2=CC=C(C=C2)C#N,-3.6
5494,C-845,chlorpyrifos;  chlorpyriphos,"InChI=1S/C9H11Cl3NO3PS/c1-3-14-17(18,15-4-2)16-9-7(11)5-6(10)8(12)13-9/h5H,3-4H2,1-2H3",SBPBAQFWLVIOKP-UHFFFAOYSA-N,CCO[P](=S)(OCC)OC1=C(Cl)C=C(Cl)C(=N1)Cl,-5.67
5495,C-846,propoxyphene,"InChI=1S/C22H29NO2/c1-5-21(24)25-22(18(2)17-23(3)4,20-14-10-7-11-15-20)16-19-12-8-6-9-13-19/h6-15,18H,5,16-17H2,1-4H3",XLMALTXPSGQGBX-UHFFFAOYSA-N,CCC(=O)OC(CC1=CC=CC=C1)(C(C)CN(C)C)C2=CC=CC=C2,-2.61
5496,C-847,methoxychlor;  dmdt;  methoxy-ddt,"InChI=1S/C16H15Cl3O2/c1-20-13-7-3-11(4-8-13)15(16(17,18)19)12-5-9-14(21-2)10-6-12/h3-10,15H,1-2H3",IAKOZHOLGAGEJT-UHFFFAOYSA-N,COC1=CC=C(C=C1)C(C2=CC=C(OC)C=C2)C(Cl)(Cl)Cl,-6.84
5497,C-848,disopyramide,"InChI=1S/C21H29N3O/c1-16(2)24(17(3)4)15-13-21(20(22)25,18-10-6-5-7-11-18)19-12-8-9-14-23-19/h5-12,14,16-17H,13,15H2,1-4H3,(H2,22,25)",UVTNFZQICZKOEM-UHFFFAOYSA-N,CC(C)N(CCC(C(N)=O)(C1=CC=CC=C1)C2=NC=CC=C2)C(C)C,-1.7
5498,C-849,triphenylmethanol;  triphenylcarbinol;  trityl  alcohol,"InChI=1S/C19H16O/c20-19(16-10-4-1-5-11-16,17-12-6-2-7-13-17)18-14-8-3-9-15-18/h1-15,20H",LZTRCELOJRDYMQ-UHFFFAOYSA-N,OC(C1=CC=CC=C1)(C2=CC=CC=C2)C3=CC=CC=C3,-2.26
5499,C-850,"5,5-diphenylbarbituric  acid","InChI=1S/C16H12N2O3/c19-13-16(11-7-3-1-4-8-11,12-9-5-2-6-10-12)14(20)18-15(21)17-13/h1-10H,(H2,17,18,19,20,21)",IKVPZYAOGOJTLK-UHFFFAOYSA-N,O=C1NC(=O)C(C(=O)N1)(C2=CC=CC=C2)C3=CC=CC=C3,-4.2
5500,C-851,"dibenzo-18-crown-6;    [3,3]db18c6","InChI=1S/C20H24O6/c1-2-6-18-17(5-1)23-13-9-21-11-15-25-19-7-3-4-8-20(19)26-16-12-22-10-14-24-18/h1-8H,9-16H2",YSSSPARMOAYJTE-UHFFFAOYSA-N,C1COC2=C(OCCOCCOC3=C(OCCO1)C=CC=C3)C=CC=C2,-4.69
5501,C-852,"(rs)-4-hydroxy-4,5,6,7-tetrahydro-2-sulfamoylthieno[2,3-b]thiopyran-7,7-dioxide","InChI=1S/C7H9NO5S3/c8-16(12,13)6-3-4-5(9)1-2-15(10,11)7(4)14-6/h3,5,9H,1-2H2,(H2,8,12,13)",MAZCFXDIYXGRAD-UHFFFAOYSA-N,N[S](=O)(=O)C1=CC2=C(S1)[S](=O)(=O)CCC2O,-1.36
5502,C-853,1-(4-nitrophenylsulfonyl)cycloheptanecarboxylic acid isopropyl ester,"InChI=1S/C17H23NO6S/c1-13(2)24-16(19)17(11-5-3-4-6-12-17)25(22,23)15-9-7-14(8-10-15)18(20)21/h7-10,13H,3-6,11-12H2,1-2H3",RWOBYZRHHZGFHD-UHFFFAOYSA-N,CC(C)OC(=O)C1(CCCCCC1)[S](=O)(=O)C2=CC=C(C=C2)[N+]([O-])=O,-5.07
5503,C-854,n-(4-nitrophenyl)benzenesulfonamide,"InChI=1S/C12H10N2O4S/c15-14(16)11-8-6-10(7-9-11)13-19(17,18)12-4-2-1-3-5-12/h1-9,13H",SWSJPCDGJYPPCS-UHFFFAOYSA-N,[O-][N+](=O)C1=CC=C(N[S](=O)(=O)C2=CC=CC=C2)C=C1,-3.93
5504,C-855,diazepam,"InChI=1S/C16H13ClN2O/c1-19-14-8-7-12(17)9-13(14)16(18-10-15(19)20)11-5-3-2-4-6-11/h2-9H,10H2,1H3",AAOVKJBEBIDNHE-UHFFFAOYSA-N,CN1C(=O)CN=C(C2=CC=CC=C2)C3=C1C=CC(=C3)Cl,-3.68
5505,C-856,prochloraz,"InChI=1S/C15H16Cl3N3O2/c1-2-4-20(15(22)21-5-3-19-10-21)6-7-23-14-12(17)8-11(16)9-13(14)18/h3,5,8-10H,2,4,6-7H2,1H3",TVLSRXXIMLFWEO-UHFFFAOYSA-N,CCCN(CCOC1=C(Cl)C=C(Cl)C=C1Cl)C(=O)[N]2C=CN=C2,-4.04
5506,C-857,sulfamethoxypyridazine;  3-sulfa-6-methoxypyridazine,"InChI=1S/C11H12N4O3S/c1-18-11-7-6-10(13-14-11)15-19(16,17)9-4-2-8(12)3-5-9/h2-7H,12H2,1H3,(H,13,15)",VLYWMPOKSSWJAL-UHFFFAOYSA-N,COC1=CC=C(N[S](=O)(=O)C2=CC=C(N)C=C2)N=N1,-2.68
5507,C-858,phosalone;  zolone,"InChI=1S/C12H15ClNO4PS2/c1-3-16-19(20,17-4-2)21-8-14-10-6-5-9(13)7-11(10)18-12(14)15/h5-7H,3-4,8H2,1-2H3",IOUNQDKNJZEDEP-UHFFFAOYSA-N,CCO[P](=S)(OCC)SCN1C(=O)OC2=C1C=CC(=C2)Cl,-5.08
5508,C-859,pipemidic acid,"InChI=1S/C14H17N5O3/c1-2-18-8-10(13(21)22)11(20)9-7-16-14(17-12(9)18)19-5-3-15-4-6-19/h7-8,15H,2-6H2,1H3,(H,21,22)",JOHZPMXAZQZXHR-UHFFFAOYSA-N,CCN1C=C(C(O)=O)C(=O)C2=C1N=C(N=C2)N3CCNCC3,-2.98
5509,C-860,"2,3-benzanthracene;  benz[b]anthracene;  naphthacene;  tetracene",InChI=1S/C18H12/c1-2-6-14-10-18-12-16-8-4-3-7-15(16)11-17(18)9-13(14)5-1/h1-12H,IFLREYGFSNHWGE-UHFFFAOYSA-N,C1=CC2=C(C=C1)C=C3C=C4C=CC=CC4=CC3=C2,-8.69
5510,C-861,"sulfamethizole;  n1-(5'-methyl-1',3',4'-thiadiazol-2'-yl)sulfanilamide","InChI=1S/C9H10N4O2S2/c1-6-11-12-9(16-6)13-17(14,15)8-4-2-7(10)3-5-8/h2-5H,10H2,1H3,(H,12,13)",VACCAVUAMIDAGB-UHFFFAOYSA-N,CC1=NN=C(N[S](=O)(=O)C2=CC=C(N)C=C2)S1,-2.16
5511,C-862,"3,3',4,4',5,5'-hexachlorobiphenyl",InChI=1S/C12H4Cl6/c13-7-1-5(2-8(14)11(7)17)6-3-9(15)12(18)10(16)4-6/h1-4H,ZHLICBPIXDOFFG-UHFFFAOYSA-N,ClC1=C(Cl)C(=CC(=C1)C2=CC(=C(Cl)C(=C2)Cl)Cl)Cl,-8.85
5512,C-863,oxycarboxin,"InChI=1S/C12H13NO4S/c1-9-11(18(15,16)8-7-17-9)12(14)13-10-5-3-2-4-6-10/h2-6H,7-8H2,1H3,(H,13,14)",AMEKQAFGQBKLKX-UHFFFAOYSA-N,CC1=C(C(=O)NC2=CC=CC=C2)[S](=O)(=O)CCO1,-2.43
5513,C-864,n1-(3-chloro-4-methylphenyl)sulfanilamide;  3-chloro-4-methylsulfabenzene,"InChI=1S/C13H13ClN2O2S/c1-9-2-5-11(8-13(9)14)16-19(17,18)12-6-3-10(15)4-7-12/h2-8,16H,15H2,1H3",KSNBKURTGGLQHU-UHFFFAOYSA-N,CC1=C(Cl)C=C(N[S](=O)(=O)C2=CC=C(N)C=C2)C=C1,-4.91
5514,C-865,n1-(4-chloro-2-methylphenyl)sulfanilamide;  4-chloro-2-methylsulfabenzene,"InChI=1S/C13H13ClN2O2S/c1-9-8-10(14)2-7-13(9)16-19(17,18)12-5-3-11(15)4-6-12/h2-8,16H,15H2,1H3",QVUSGTRNWLETRQ-UHFFFAOYSA-N,CC1=C(N[S](=O)(=O)C2=CC=C(N)C=C2)C=CC(=C1)Cl,-4.35
5515,C-866,triamcinolone  diacetate,"InChI=1S/C25H31FO8/c1-13(27)33-12-20(31)25(32)21(34-14(2)28)10-18-17-6-5-15-9-16(29)7-8-22(15,3)24(17,26)19(30)11-23(18,25)4/h7-9,17-19,21,30,32H,5-6,10-12H2,1-4H3",XGMPVBXKDAHORN-UHFFFAOYSA-N,CC(=O)OCC(=O)C1(O)C(CC2C3CCC4=CC(=O)C=CC4(C)C3(F)C(O)CC12C)OC(C)=O,-4.13
5516,C-867,dicofol;  kelthane,"InChI=1S/C14H9Cl5O/c15-11-5-1-9(2-6-11)13(20,14(17,18)19)10-3-7-12(16)8-4-10/h1-8,20H",UOAMTSKGCBMZTC-UHFFFAOYSA-N,OC(C1=CC=C(Cl)C=C1)(C2=CC=C(Cl)C=C2)C(Cl)(Cl)Cl,-5.67
5517,C-868,"n-(2,3-dichlorophenyl)benzenesulfonamide","InChI=1S/C12H9Cl2NO2S/c13-10-7-4-8-11(12(10)14)15-18(16,17)9-5-2-1-3-6-9/h1-8,15H",VAIYLVSTCHKPAY-UHFFFAOYSA-N,ClC1=CC=CC(=C1Cl)N[S](=O)(=O)C2=CC=CC=C2,-4.73
5518,C-869,n1-(4-chlorophenyl)-2-methylsulfanilamide; 4-chloro-1-(4-amino-2-methylphenylsulfonamido)benzene,"InChI=1S/C13H13ClN2O2S/c1-9-8-11(15)4-7-13(9)19(17,18)16-12-5-2-10(14)3-6-12/h2-8,16H,15H2,1H3",WKVHKLUGADLQMG-UHFFFAOYSA-N,CC1=C(C=CC(=C1)N)[S](=O)(=O)NC2=CC=C(Cl)C=C2,-4.42
5519,C-870,"sulfisomidine;  2,6-dimethyl-4-sulfapyrimidine","InChI=1S/C12H14N4O2S/c1-8-7-12(15-9(2)14-8)16-19(17,18)11-5-3-10(13)4-6-11/h3-7H,13H2,1-2H3,(H,14,15,16)",YZMCKZRAOLZXAZ-UHFFFAOYSA-N,CC1=CC(=NC(=N1)C)N[S](=O)(=O)C2=CC=C(N)C=C2,-2.3
5520,C-871,"2,3',4,4',5,5'-hexachlorobiphenyl",InChI=1S/C12H4Cl6/c13-7-4-9(15)8(14)3-6(7)5-1-10(16)12(18)11(17)2-5/h1-4H,AZXHAWRMEPZSSV-UHFFFAOYSA-N,ClC1=CC(=C(C=C1Cl)C2=CC(=C(Cl)C(=C2)Cl)Cl)Cl,-8.52