,ID,Name,InChI,InChIKey,SMILES,Solubility
2683,B-2684,tetrachlorobiphenyl,InChI=1S/C12H6Cl4/c13-9-6-8(7-4-2-1-3-5-7)10(14)12(16)11(9)15/h1-6H,HLQDGCWIOSOMDP-UHFFFAOYSA-N,Clc1cc(c2ccccc2)c(Cl)c(Cl)c1Cl,-6.8026
2684,B-2685,isooctyl alcohol,"InChI=1S/C8H18O/c1-8(2)6-4-3-5-7-9/h8-9H,3-7H2,1-2H3",BWDBEAQIHAEVLV-UHFFFAOYSA-N,CC(C)CCCCCO,-2.3085
2685,B-2686,"butanoic acid, 1,2-ethanediylbis(oxy-2,1-ethaned","InChI=1S/C14H26O6/c1-3-5-13(15)19-11-9-17-7-8-18-10-12-20-14(16)6-4-2/h3-12H2,1-2H3",AJMJPGWUPHIMKQ-UHFFFAOYSA-N,CCCC(=O)OCCOCCOCCOC(=O)CCC,-1.5598
2686,B-2687,"3-pyridinecarboxamide, n-[(phenylamino)carbonyl]","InChI=1S/C13H11N3O2/c17-12(10-5-4-8-14-9-10)16-13(18)15-11-6-2-1-3-7-11/h1-9H,(H2,15,16,17,18)",QSHWUEPEDUMMBW-UHFFFAOYSA-N,O=C(NC(=O)c1cccnc1)Nc2ccccc2,-3.3825
2687,B-2688,"dipropylene glycol, dibenzoate","InChI=1S/C20H22O5/c21-19(17-9-3-1-4-10-17)24-15-7-13-23-14-8-16-25-20(22)18-11-5-2-6-12-18/h1-6,9-12H,7-8,13-16H2",BYQDGAVOOHIJQS-UHFFFAOYSA-N,O=C(OCCCOCCCOC(=O)c1ccccc1)c2ccccc2,-4.3584
2688,B-2689,hexachlorocyclohexane,"InChI=1S/3C6H6Cl6/c7-2-1-6(11,12)5(10)4(9)3(2)8;7-3-1-2-5(9,10)4(8)6(3,11)12;7-1-2(8)4(10)6(12)5(11)3(1)9/h2-5H,1H2;3-4H,1-2H2;1-6H",REDUMVQOCNAQCW-UHFFFAOYSA-N,ClC1CC(Cl)(Cl)C(Cl)C(Cl)C1Cl.ClC2CCC(Cl)(Cl)C(Cl)C2(Cl)Cl.ClC3C(Cl)C(Cl)C(Cl)C(Cl)C3Cl,-4.9408
2689,B-2690,diisodecyl adipate,"InChI=1S/C26H50O4/c1-23(2)17-11-7-5-9-15-21-29-25(27)19-13-14-20-26(28)30-22-16-10-6-8-12-18-24(3)4/h23-24H,5-22H2,1-4H3",YKGYQYOQRGPFTO-UHFFFAOYSA-N,CC(C)CCCCCCCOC(=O)CCCCC(=O)OCCCCCCCC(C)C,-9.9867
2690,B-2691,tetradecanol,"InChI=1S/C14H30O/c1-3-5-6-7-8-9-10-11-13-14(15)12-4-2/h14-15H,3-13H2,1-2H3",HRDGAIGDKJXHIU-UHFFFAOYSA-N,CCCCCCCCCCC(O)CCC,-5.837000000000001
2691,B-2692,norflurazon,"InChI=1S/C12H9ClF3N3O/c1-17-9-6-18-19(11(20)10(9)13)8-4-2-3-7(5-8)12(14,15)16/h2-6,17H,1H3",NVGOPFQZYCNLDU-UHFFFAOYSA-N,CNC1=C(Cl)C(=O)N(N=C1)c2cccc(c2)C(F)(F)F,-3.9548
2692,B-2693,tetrachlorophthalide,InChI=1S/C8H2Cl4O2/c9-4-2-1-14-8(13)3(2)5(10)7(12)6(4)11/h1H2,NMWKWBPNKPGATC-UHFFFAOYSA-N,Clc1c(Cl)c(Cl)c2C(=O)OCc2c1Cl,-5.0365
2693,B-2694,ethychlozate,"InChI=1S/C11H11ClN2O2/c1-2-16-11(15)6-10-8-5-7(12)3-4-9(8)13-14-10/h3-5H,2,6H2,1H3,(H,13,14)",GLPZEHFBLBYFHN-UHFFFAOYSA-N,CCOC(=O)Cc1[nH]nc2ccc(Cl)cc12,-3.0256
2694,B-2695,quinonamid,"InChI=1S/C12H6Cl3NO3/c13-7-8(16-12(19)11(14)15)10(18)6-4-2-1-3-5(6)9(7)17/h1-4,11H,(H,16,19)",ZIEWAMOXCOLNSJ-UHFFFAOYSA-N,ClC(Cl)C(=O)NC1=C(Cl)C(=O)c2ccccc2C1=O,-5.0261
2695,B-2696,diisooctyl phthalate,"InChI=1S/C24H38O4/c1-19(2)13-7-5-11-17-27-23(25)21-15-9-10-16-22(21)24(26)28-18-12-6-8-14-20(3)4/h9-10,15-16,19-20H,5-8,11-14,17-18H2,1-4H3",IJFPVINAQGWBRJ-UHFFFAOYSA-N,CC(C)CCCCCOC(=O)c1ccccc1C(=O)OCCCCCC(C)C,-6.6375
2696,B-2697,probenazole,"InChI=1S/C10H9NO3S/c1-2-7-14-10-8-5-3-4-6-9(8)15(12,13)11-10/h2-6H,1,7H2",WHHIPMZEDGBUCC-UHFFFAOYSA-N,C=CCOC1=N[S](=O)(=O)c2ccccc12,-3.1727
2697,B-2698,"2-butanone, 3-ethoxy-1,1-dihydroxy-; or kethoxal","InChI=1S/C6H12O4/c1-3-10-4(2)5(7)6(8)9/h4,6,8-9H,3H2,1-2H3",YRCRRHNVYVFNTM-UHFFFAOYSA-N,CCOC(C)C(=O)C(O)O,-0.1707
2698,B-2699,"1,1'-biphenyl, octabromo-",InChI=1S/C12H2Br8/c13-4-2-1-3(6(14)7(4)15)5-8(16)10(18)12(20)11(19)9(5)17/h1-2H,NDRKXFLZSRHAJE-UHFFFAOYSA-N,Brc1ccc(c(Br)c1Br)c2c(Br)c(Br)c(Br)c(Br)c2Br,-9.351
2699,B-2700,isopropyl phenyl diphenyl phosphate,"InChI=1S/C21H21O4P/c1-17(2)20-15-9-10-16-21(20)25-26(22,23-18-11-5-3-6-12-18)24-19-13-7-4-8-14-19/h3-17H,1-2H3",JJXNVYMIYBNZQX-UHFFFAOYSA-N,CC(C)c1ccccc1O[P](=O)(Oc2ccccc2)Oc3ccccc3,-5.2239
2700,B-2701,"2h-purine-2-thione, 1,3-dihydro-","InChI=1S/C5H4N4S/c10-5-6-1-3-4(9-5)8-2-7-3/h1-2H,(H2,6,7,8,9,10)",HDBQZGJWHMCXIL-UHFFFAOYSA-N,S=C1Nc2nc[nH]c2C=N1,-2.5803
2701,B-2702,"2,6-dinitro-biphenyl-3-ol","InChI=1S/C12H8N2O5/c15-10-7-6-9(13(16)17)11(12(10)14(18)19)8-4-2-1-3-5-8/h1-7,15H",RAHRBPFKDAZSCJ-UHFFFAOYSA-N,Oc1ccc(c(c2ccccc2)c1[N+]([O-])=O)[N+]([O-])=O,-3.7164
2702,B-2703,chloromethiuron,"InChI=1S/C10H13ClN2S/c1-7-6-8(11)4-5-9(7)12-10(14)13(2)3/h4-6H,1-3H3,(H,12,14)",IBZZDPVVVSNQOY-UHFFFAOYSA-N,CN(C)C(=S)Nc1ccc(Cl)cc1C,-3.6604
2703,B-2704,"2,6-dichlorodiphenyl ether",InChI=1S/C12H8Cl2O/c13-10-7-4-8-11(14)12(10)15-9-5-2-1-3-6-9/h1-8H,IRLZOQDGEAEIPX-UHFFFAOYSA-N,Clc1cccc(Cl)c1Oc2ccccc2,-5.0605
2704,B-2705,bioresmethrin,"InChI=1S/C22H26O3/c1-15(2)10-19-20(22(19,3)4)21(23)25-14-17-12-18(24-13-17)11-16-8-6-5-7-9-16/h5-10,12-13,19-20H,11,14H2,1-4H3",VEMKTZHHVJILDY-UHFFFAOYSA-N,CC(C)=CC1C(C(=O)OCc2coc(Cc3ccccc3)c2)C1(C)C,-6.0524
2705,B-2706,"1,2-dithiane-3,6-dicarboxylic acid, cis-","InChI=1S/C6H8O4S2/c7-5(8)3-1-2-4(6(9)10)12-11-3/h3-4H,1-2H2,(H,7,8)(H,9,10)/t3-,4+",NQRRVGBUZRSXRF-ZXZARUISSA-N,OC(=O)[C@@H]1CC[C@@H](SS1)C(O)=O,-1.1709
2706,B-2707,"2,4(1h,3h)-pyrimidinedione, 1-methyl-5-nitro-","InChI=1S/C5H5N3O4/c1-7-2-3(8(11)12)4(9)6-5(7)10/h2H,1H3,(H,6,9,10)",JTVBCXIVJCAUBK-UHFFFAOYSA-N,CN1C=C(C(=O)NC1=O)[N+]([O-])=O,-1.9977
2707,B-2708,diisononyl phthalate,"InChI=1S/C26H42O4/c1-21(2)15-9-5-7-13-19-29-25(27)23-17-11-12-18-24(23)26(28)30-20-14-8-6-10-16-22(3)4/h11-12,17-18,21-22H,5-10,13-16,19-20H2,1-4H3",HBGGXOJOCNVPFY-UHFFFAOYSA-N,CC(C)CCCCCCOC(=O)c1ccccc1C(=O)OCCCCCCC(C)C,-6.3208
2708,B-2709,octanol (isomer mix),"InChI=1S/C8H18O/c1-3-5-6-7-8(9)4-2/h8-9H,3-7H2,1-2H3",NMRPBPVERJPACX-UHFFFAOYSA-N,CCCCCC(O)CC,-2.3468
2709,B-2710,dinitramine,"InChI=1S/C11H13F3N4O4/c1-3-16(4-2)9-7(17(19)20)5-6(11(12,13)14)8(15)10(9)18(21)22/h5H,3-4,15H2,1-2H3",OFDYMSKSGFSLLM-UHFFFAOYSA-N,CCN(CC)c1c(cc(c(N)c1[N+]([O-])=O)C(F)(F)F)[N+]([O-])=O,-5.4668
2710,B-2711,prodiamine,"InChI=1S/C13H17F3N4O4/c1-3-5-18(6-4-2)11-9(19(21)22)7-8(13(14,15)16)10(17)12(11)20(23)24/h7H,3-6,17H2,1-2H3",RSVPPPHXAASNOL-UHFFFAOYSA-N,CCCN(CCC)c1c(cc(c(N)c1[N+]([O-])=O)C(F)(F)F)[N+]([O-])=O,-7.4305
2711,B-2712,benzoximate,"InChI=1S/C18H18ClNO5/c1-4-20(25-18(22)12-8-6-5-7-9-12)17(21)15-14(23-2)11-10-13(19)16(15)24-3/h5-11H,4H2,1-3H3",HOERQTQCTISLFR-UHFFFAOYSA-N,CCN(OC(=O)c1ccccc1)C(=O)c2c(OC)ccc(Cl)c2OC,-4.0837
2712,B-2713,atenolol,"InChI=1S/C14H22N2O3/c1-10(2)16-8-12(17)9-19-13-5-3-11(4-6-13)7-14(15)18/h3-6,10,12,16-17H,7-9H2,1-2H3,(H2,15,18)",METKIMKYRPQLGS-UHFFFAOYSA-N,CC(C)NCC(O)COc1ccc(CC(N)=O)cc1,-1.3016
2713,B-2714,"propanediamide, 2,2-diethyl-","InChI=1S/C7H14N2O2/c1-3-7(4-2,5(8)10)6(9)11/h3-4H2,1-2H3,(H2,8,10)(H2,9,11)",IYZYMNZTUFOYHR-UHFFFAOYSA-N,CCC(CC)(C(N)=O)C(N)=O,-1.1992
2714,B-2715,Mecarphon,"InChI=1S/C7H14NO4PS2/c1-8(7(10)11-2)6(9)5-15-13(4,14)12-3/h5H2,1-4H3",PUTUPQVEMBRCAG-UHFFFAOYSA-N,COC(=O)N(C)C(=O)CS[P](C)(=S)OC,-1.9563
2715,B-2716,pirimiphos-methyl,"InChI=1S/C11H20N3O3PS/c1-6-14(7-2)11-12-9(3)8-10(13-11)17-18(19,15-4)16-5/h8H,6-7H2,1-5H3",QHOQHJPRIBSPCY-UHFFFAOYSA-N,CCN(CC)c1nc(C)cc(O[P](=S)(OC)OC)n1,-4.5503
2716,B-2717,hexadecanol,"InChI=1S/C16H34O/c1-3-5-6-7-8-9-10-11-12-13-15-16(17)14-4-2/h16-17H,3-15H2,1-2H3",JIMMILCKVYOFET-UHFFFAOYSA-N,CCCCCCCCCCCCC(O)CCC,-6.7708
2717,B-2718,"1-naphthalenecarboxamide, n-hydroxy-n-phenyl-","InChI=1S/C17H13NO2/c19-17(18(20)14-9-2-1-3-10-14)16-12-6-8-13-7-4-5-11-15(13)16/h1-12,20H",MDPNINYZZKJMBC-UHFFFAOYSA-N,ON(c1ccccc1)C(=O)c2cccc3ccccc23,-3.9433
2718,B-2719,"benzamide, n-hydroxy-n-1-naphthalenyl-","InChI=1S/C17H13NO2/c19-17(14-8-2-1-3-9-14)18(20)16-12-6-10-13-7-4-5-11-15(13)16/h1-12,20H",PZBPQFNCQFUIOP-UHFFFAOYSA-N,ON(C(=O)c1ccccc1)c2cccc3ccccc23,-3.3065
2719,B-2720,"benzamide, 3,5-dinitro-n-phenyl-n-hydroxy-","InChI=1S/C13H9N3O6/c17-13(14(18)10-4-2-1-3-5-10)9-6-11(15(19)20)8-12(7-9)16(21)22/h1-8,18H",CHBUFRFETPYQCI-UHFFFAOYSA-N,ON(c1ccccc1)C(=O)c2cc(cc(c2)[N+]([O-])=O)[N+]([O-])=O,-3.6367
2720,B-2721,"acetic acid, [(aminothioxomethyl)thio]-","InChI=1S/C3H5NO2S2/c4-3(7)8-1-2(5)6/h1H2,(H2,4,7)(H,5,6)",KXMZHKOZDQLZMO-UHFFFAOYSA-N,NC(=S)SCC(O)=O,-0.7482
2721,B-2722,"glycine, n-(dithiocarboxy)-, n-ester with mercap","InChI=1S/C5H7NO4S2/c7-3(8)1-6-5(11)12-2-4(9)10/h1-2H2,(H,6,11)(H,7,8)(H,9,10)",FKNJURNHJJFOFH-UHFFFAOYSA-N,OC(=O)CNC(=S)SCC(O)=O,-1.3011
2722,B-2723,"benzamide, n-[2-(1h-imidazol-4-yl)ethyl]-","InChI=1S/C12H13N3O/c16-12(10-4-2-1-3-5-10)14-7-6-11-8-13-9-15-11/h1-5,8-9H,6-7H2,(H,13,15)(H,14,16)",DAUCLDROLUGJDY-UHFFFAOYSA-N,O=C(NCCc1c[nH]cn1)c2ccccc2,-0.634
2723,B-2724,isodecyl diphenyl phosphate,"InChI=1S/C22H31O4P/c1-20(2)14-8-4-3-5-13-19-24-27(23,25-21-15-9-6-10-16-21)26-22-17-11-7-12-18-22/h6-7,9-12,15-18,20H,3-5,8,13-14,19H2,1-2H3",RYUJRXVZSJCHDZ-UHFFFAOYSA-N,CC(C)CCCCCCCO[P](=O)(Oc1ccccc1)Oc2ccccc2,-5.7165
2724,B-2725,"2-propanol, 1-(1-methyl-2-propoxyethoxy)-","InChI=1S/C9H20O3/c1-4-5-11-7-9(3)12-6-8(2)10/h8-10H,4-7H2,1-3H3",WEZPLQKRXDBPEP-UHFFFAOYSA-N,CCCOCC(C)OCC(C)O,-0.0701
2725,B-2726,"2-propanol, 1-(2-butoxy-1-methylethoxy)-","InChI=1S/C10H22O3/c1-4-5-6-12-8-10(3)13-7-9(2)11/h9-11H,4-8H2,1-3H3",CUVLMZNMSPJDON-UHFFFAOYSA-N,CCCCOCC(C)OCC(C)O,-0.6262
2726,B-2727,ethiofencarb,"InChI=1S/C11H15NO2S/c1-3-15-8-9-6-4-5-7-10(9)14-11(13)12-2/h4-7H,3,8H2,1-2H3,(H,12,13)",HEZNVIYQEUHLNI-UHFFFAOYSA-N,CCSCc1ccccc1OC(=O)NC,-2.0927
2727,B-2728,"1,2:3,4-diepoxybutane (2s,3s)","InChI=1S/C4H6O2/c1-3(5-1)4-2-6-4/h3-4H,1-2H2/t3-,4-/m0/s1",ZFIVKAOQEXOYFY-IMJSIDKUSA-N,C1O[C@@H]1[C@@H]2CO2,1.065
2728,B-2729,ethidimuron,"InChI=1S/C7H12N4O3S2/c1-4-16(13,14)7-10-9-6(15-7)11(3)5(12)8-2/h4H2,1-3H3,(H,8,12)",KCOCSOWTADCKOL-UHFFFAOYSA-N,CC[S](=O)(=O)c1sc(nn1)N(C)C(=O)NC,-1.945
2729,B-2730,"propanoic acid, 2-(2,4,5-trichlorophenoxy)-, (r)","InChI=1S/C9H7Cl3O3/c1-4(9(13)14)15-8-3-6(11)5(10)2-7(8)12/h2-4H,1H3,(H,13,14)/t4-/m1/s1",ZLSWBLPERHFHIS-SCSAIBSYSA-N,C[C@@H](Oc1cc(Cl)c(Cl)cc1Cl)C(O)=O,-3.1295
2730,B-2731,"2-furanol, 5-ethyltetrahydro-","InChI=1S/C6H12O2/c1-2-5-3-4-6(7)8-5/h5-7H,2-4H2,1H3",VPPOYUGGWUIGDG-UHFFFAOYSA-N,CCC1CCC(O)O1,-0.0651
2731,B-2732,"1,2:3,4-diepoxybutane (2r,3r)","InChI=1S/C4H6O2/c1-3(5-1)4-2-6-4/h3-4H,1-2H2/t3-,4-/m1/s1",ZFIVKAOQEXOYFY-QWWZWVQMSA-N,C1O[C@H]1[C@H]2CO2,1.065
2732,B-2733,"1,6-dioxaspiro[4,4]nonane, 2,7-dimethyl-","InChI=1S/C9H16O2/c1-7-3-5-9(10-7)6-4-8(2)11-9/h7-8H,3-6H2,1-2H3",PUKTVFNQVGOXPI-UHFFFAOYSA-N,CC1CCC2(CCC(C)O2)O1,-0.4487
2733,B-2734,"thymidine, 3'-azido-3'-deoxy-","InChI=1S/C10H13N5O4/c1-5-3-15(10(18)12-9(5)17)8-2-6(13-14-11)7(4-16)19-8/h3,6-8,16H,2,4H2,1H3,(H,12,17,18)/t6-,7+,8+/m0/s1",HBOMLICNUCNMMY-XLPZGREQSA-N,CC1=CN([C@H]2C[C@H](N=[N+]=[N-])[C@@H](CO)O2)C(=O)NC1=O,-1.1221
2734,B-2735,etofenamate,"InChI=1S/C18H18F3NO4/c19-18(20,21)13-4-3-5-14(12-13)22-16-7-2-1-6-15(16)17(24)26-11-10-25-9-8-23/h1-7,12,22-23H,8-11H2",XILVEPYQJIOVNB-UHFFFAOYSA-N,OCCOCCOC(=O)c1ccccc1Nc2cccc(c2)C(F)(F)F,-5.3633
2735,B-2736,"pteridine, 4-methoxy-","InChI=1S/C7H6N4O/c1-12-7-5-6(10-4-11-7)9-3-2-8-5/h2-4H,1H3",KCCOKUSVNPDIBJ-UHFFFAOYSA-N,COc1ncnc2nccnc12,-1.113
2736,B-2737,zolone,"InChI=1S/C12H16NO4PS2/c1-3-15-18(19,16-4-2)20-9-13-10-7-5-6-8-11(10)17-12(13)14/h5-8H,3-4,9H2,1-2H3",YAAFKGCBOCRHIF-UHFFFAOYSA-N,CCO[P](=S)(OCC)SCN1C(=O)Oc2ccccc12,-5.1905
2737,B-2738,benzo(a)fluorene,"InChI=1S/C17H12/c1-3-7-14-12(5-1)9-10-16-15-8-4-2-6-13(15)11-17(14)16/h1-10H,11H2",HKMTVMBEALTRRR-UHFFFAOYSA-N,C1c2ccccc2c3ccc4ccccc4c13,-6.678
2738,B-2739,benzo(b)fluorene,"InChI=1S/C17H12/c1-2-6-13-11-17-15(9-12(13)5-1)10-14-7-3-4-8-16(14)17/h1-9,11H,10H2",HAPOJKSPCGLOOD-UHFFFAOYSA-N,C1c2ccccc2c3cc4ccccc4cc13,-8.0318
2739,B-2740,Methacrifos,"InChI=1S/C7H13O5PS/c1-6(7(8)9-2)5-12-13(14,10-3)11-4/h5H,1-4H3/b6-5+",NTAHCMPOMKHKEU-AATRIKPKSA-N,COC(=O)C(/C)=C/O[P](=S)(OC)OC,-2.7785
2740,B-2741,cafaminol,"InChI=1S/C11H17N5O3/c1-13(5-6-17)10-12-8-7(14(10)2)9(18)16(4)11(19)15(8)3/h17H,5-6H2,1-4H3",ZGNRRVAPHPANFI-UHFFFAOYSA-N,CN(CCO)c1nc2N(C)C(=O)N(C)C(=O)c2n1C,-0.6488
2741,B-2742,isocarbamid,"InChI=1S/C8H15N3O2/c1-6(2)5-10-8(13)11-4-3-9-7(11)12/h6H,3-5H2,1-2H3,(H,9,12)(H,10,13)",SBYAVOHNDJTVPA-UHFFFAOYSA-N,CC(C)CNC(=O)N1CCNC1=O,-2.1538
2742,B-2743,"3(2h)-thiazoleacetic acid, 4-methyl-2-thioxo-","InChI=1S/C6H7NO2S2/c1-4-3-11-6(10)7(4)2-5(8)9/h3H,2H2,1H3,(H,8,9)",FVQQWSSTYVBNST-UHFFFAOYSA-N,CC1=CSC(=S)N1CC(O)=O,-1.9632
2743,B-2744,metrizamide,"InChI=1S/C18H22I3N3O8/c1-5(26)22-12-9(19)8(10(20)14(11(12)21)24(3)6(2)27)17(30)23-13-16(29)15(28)7(4-25)32-18(13)31/h7,13,15-16,18,25,28-29,31H,4H2,1-3H3,(H,22,26)(H,23,30)/t7?,13?,15-,16?,18+/m1/s1",BAQCROVBDNBEEB-OPRFMTNSSA-N,CN(C(C)=O)c1c(I)c(NC(C)=O)c(I)c(C(=O)NC2[C@@H](O)OC(CO)[C@@H](O)C2O)c1I,-0.1982
2744,B-2745,propetamphos,"InChI=1S/C10H20NO4PS/c1-6-11-16(17,13-5)15-9(4)7-10(12)14-8(2)3/h7-8H,6H2,1-5H3,(H,11,17)/b9-7-",BZNDWPRGXNILMS-CLFYSBASSA-N,CCN[P](=S)(OC)OC(/C)=C\C(=O)OC(C)C,-3.4078
2745,B-2746,3-methyl-2-heptanol,"InChI=1S/C8H18O/c1-4-5-6-7(2)8(3)9/h7-9H,4-6H2,1-3H3",SZERMVMTUUAYML-UHFFFAOYSA-N,CCCCC(C)C(C)O,-2.0578
2746,B-2747,mebendazole,"InChI=1S/C16H13N3O3/c1-22-16(21)19-15-17-12-8-7-11(9-13(12)18-15)14(20)10-5-3-2-4-6-10/h2-9H,1H3,(H2,17,18,19,21)",OPXLLQIJSORQAM-UHFFFAOYSA-N,COC(=O)Nc1[nH]c2cc(ccc2n1)C(=O)c3ccccc3,-3.6172
2747,B-2748,"benzo[a]pyrene, 5-methyl-","InChI=1S/C21H14/c1-13-11-16-7-4-6-14-9-10-18-17-8-3-2-5-15(17)12-19(13)21(18)20(14)16/h2-12H,1H3",JQANOYBJRYYFQI-UHFFFAOYSA-N,Cc1cc2cccc3ccc4c5ccccc5cc1c4c23,-8.5224
2748,B-2749,lyral,"InChI=1S/C13H22O2/c1-13(2,15)9-3-4-11-5-7-12(10-14)8-6-11/h5,10,12,15H,3-4,6-9H2,1-2H3",ORMHZBNNECIKOH-UHFFFAOYSA-N,CC(C)(O)CCCC1=CCC(CC1)C=O,-1.5376
2749,B-2750,heptachloronaphthalene,InChI=1S/C10HCl7/c11-2-1-3(12)6(13)5-4(2)7(14)9(16)10(17)8(5)15/h1H,QYEGXUUXWMKHHS-UHFFFAOYSA-N,Clc1cc(Cl)c2c(Cl)c(Cl)c(Cl)c(Cl)c2c1Cl,-8.775
2750,B-2751,divicine,"InChI=1S/C4H6N4O2/c5-2-1(9)3(10)8-4(6)7-2/h2H,5H2,(H3,6,7,8,10)",NVANETMVFYSFSK-UHFFFAOYSA-N,NC1N=C(N)NC(=O)C1=O,-1.6978
2751,B-2752,"2-furoic acid, 3,4,5-trichloro-","InChI=1S/C5HCl3O3/c6-1-2(7)4(8)11-3(1)5(9)10/h(H,9,10)",WKDGIASDCHPIDT-UHFFFAOYSA-N,OC(=O)c1oc(Cl)c(Cl)c1Cl,-2.2193
2752,B-2753,"9-octadecenoic acid, 12-(sulfooxy)-, (z)-","InChI=1S/C18H34O6S/c1-2-3-4-11-14-17(24-25(21,22)23)15-12-9-7-5-6-8-10-13-16-18(19)20/h9,12,17H,2-8,10-11,13-16H2,1H3,(H,19,20)(H,21,22,23)/b12-9-",CYKFQSXTIVGYDT-XFXZXTDPSA-N,CCCCCCC(C\C=C/CCCCCCCC(O)=O)O[S](O)(=O)=O,-0.5781
2753,B-2754,"4-quinolinecarboxylic acid, 1,2-dihydro-6-methox","InChI=1S/C11H9NO4/c1-16-6-2-3-9-7(4-6)8(11(14)15)5-10(13)12-9/h2-5H,1H3,(H,12,13)(H,14,15)/p-1",ATQXNYQCZFMIKY-UHFFFAOYSA-M,COc1ccc2NC(=O)C=C(C([O-])=O)c2c1,-3.1104
2754,B-2755,"d-glucuronic acid, .gamma.-lactone","InChI=1S/C6H8O6/c7-1-2(8)5-3(9)4(10)6(11)12-5/h1-5,8-10H/t2-,3+,4-,5+/m0/s1",UYUXSRADSPPKRZ-SKNVOMKLSA-N,O[C@@H](C=O)[C@H]1OC(=O)[C@@H](O)[C@H]1O,0.1641
2755,B-2756,"2-furancarboxylic acid, 3,4-dibromo-","InChI=1S/C5H2Br2O3/c6-2-1-10-4(3(2)7)5(8)9/h1H,(H,8,9)",ISBXWVSYAWHMSU-UHFFFAOYSA-N,OC(=O)c1occ(Br)c1Br,-2.0887
2756,B-2757,"succinamic acid, 3-amino-2-hydroxy-","InChI=1S/C4H8N2O4/c5-1(3(6)8)2(7)4(9)10/h1-2,7H,5H2,(H2,6,8)(H,9,10)",XTAAXERUXNEDCQ-UHFFFAOYSA-N,NC(C(O)C(O)=O)C(N)=O,-1.1494
2757,B-2758,"2(1h)-pyrimidinone, 4-amino-5-ethyl-","InChI=1S/C6H9N3O/c1-2-4-3-8-6(10)9-5(4)7/h3H,2H2,1H3,(H3,7,8,9,10)",CZJGCEGNCSGRBI-UHFFFAOYSA-N,CCC1=CNC(=O)N=C1N,-1.0197
2758,B-2759,"2,4,4',6-tetrachlorobiphenyl",InChI=1S/C12H6Cl4/c13-8-3-1-7(2-4-8)12-10(15)5-9(14)6-11(12)16/h1-6H,RZFZBHKDGHISSH-UHFFFAOYSA-N,Clc1ccc(cc1)c2c(Cl)cc(Cl)cc2Cl,-6.5058
2759,B-2760,"2,3,3',4,4'-pentachloro-1,1'-biphenyl",InChI=1S/C12H5Cl5/c13-8-3-1-6(5-10(8)15)7-2-4-9(14)12(17)11(7)16/h1-5H,WIDHRBRBACOVOY-UHFFFAOYSA-N,Clc1ccc(cc1Cl)c2ccc(Cl)c(Cl)c2Cl,-7.9823
2760,B-2761,"1,2-dithiane-3,6-dicarboxylic acid, trans-","InChI=1S/C6H8O4S2/c7-5(8)3-1-2-4(6(9)10)12-11-3/h3-4H,1-2H2,(H,7,8)(H,9,10)/t3-,4-/m1/s1",NQRRVGBUZRSXRF-QWWZWVQMSA-N,OC(=O)[C@H]1CC[C@@H](SS1)C(O)=O,-1.5241
2761,B-2762,"3,3',4,4',5,5'-pcb",InChI=1S/C12H4Cl6/c13-7-1-5(2-8(14)11(7)17)6-3-9(15)12(18)10(16)4-6/h1-4H,ZHLICBPIXDOFFG-UHFFFAOYSA-N,Clc1cc(cc(Cl)c1Cl)c2cc(Cl)c(Cl)c(Cl)c2,-8.8498
2762,B-2763,procymidone,"InChI=1S/C13H11Cl2NO2/c1-12-6-13(12,2)11(18)16(10(12)17)9-4-7(14)3-8(15)5-9/h3-5H,6H2,1-2H3",QXJKBPAVAHBARF-UHFFFAOYSA-N,CC12CC1(C)C(=O)N(C2=O)c3cc(Cl)cc(Cl)c3,-4.8003
2763,B-2764,m-bromocinnamic acid,"InChI=1S/C9H7BrO2/c10-8-3-1-2-7(6-8)4-5-9(11)12/h1-6H,(H,11,12)/b5-4+",YEMUSDCFQUBPAL-SNAWJCMRSA-N,OC(=O)/C=C/c1cccc(Br)c1,-2.636
2764,B-2765,amitraz,"InChI=1S/C19H23N3/c1-14-6-8-18(16(3)10-14)20-12-22(5)13-21-19-9-7-15(2)11-17(19)4/h6-13H,1-5H3",QXAITBQSYVNQDR-UHFFFAOYSA-N,CN(C=Nc1ccc(C)cc1C)C=Nc2ccc(C)cc2C,-5.4675
2765,B-2766,"1,1'-biphenyl, 2,2',3,3',4,4',6,6'-octachloro-",InChI=1S/C12H2Cl8/c13-3-1-5(15)9(17)11(19)7(3)8-4(14)2-6(16)10(18)12(8)20/h1-2H,YPDBBDKYNWRFMF-UHFFFAOYSA-N,Clc1cc(Cl)c(c(Cl)c1Cl)c2c(Cl)cc(Cl)c(Cl)c2Cl,-9.1
2766,B-2767,2-ethylacetanilide,"InChI=1S/C10H13NO/c1-3-9-6-4-5-7-10(9)11-8(2)12/h4-7H,3H2,1-2H3,(H,11,12)",ZXOVAGUQXNXKHF-UHFFFAOYSA-N,CCc1ccccc1NC(C)=O,-1.5906
2767,B-2768,endosulfan (beta),"InChI=1S/C9H6Cl6O3S/c10-5-6(11)8(13)4-2-18-19(16)17-1-3(4)7(5,12)9(8,14)15/h3-4H,1-2H2/t3-,4+,7-,8?,19?/m0/s1",RDYMFSUJUZBWLH-VQDHCCOSSA-N,ClC1=C(Cl)C2(Cl)[C@@H]3CO[S](=O)OC[C@@H]3[C@@]1(Cl)C2(Cl)Cl,-5.9563
2768,B-2769,fluchloralin,"InChI=1S/C12H13ClF3N3O4/c1-2-4-17(5-3-13)11-9(18(20)21)6-8(12(14,15)16)7-10(11)19(22)23/h6-7H,2-5H2,1H3",MNFMIVVPXOGUMX-UHFFFAOYSA-N,CCCN(CCCl)c1c(cc(cc1[N+]([O-])=O)C(F)(F)F)[N+]([O-])=O,-5.5968
2769,B-2770,"3,3',5,5'-tetrachlorobiphenyl",InChI=1S/C12H6Cl4/c13-9-1-7(2-10(14)5-9)8-3-11(15)6-12(16)4-8/h1-6H,UTMWFJSRHLYRPY-UHFFFAOYSA-N,Clc1cc(Cl)cc(c1)c2cc(Cl)cc(Cl)c2,-8.3748
2770,B-2771,"2,3,5,6-tetrachlorobiphenyl",InChI=1S/C12H6Cl4/c13-8-6-9(14)12(16)10(11(8)15)7-4-2-1-3-5-7/h1-6H,BLAYIQLVUNIICD-UHFFFAOYSA-N,Clc1cc(Cl)c(Cl)c(c2ccccc2)c1Cl,-7.25
2771,B-2772,"dl-alloisoleucine, n-acetyl-","InChI=1S/C8H15NO3/c1-4-5(2)7(8(11)12)9-6(3)10/h5,7H,4H2,1-3H3,(H,9,10)(H,11,12)",JDTWZSUNGHMMJM-UHFFFAOYSA-N,CCC(C)C(NC(C)=O)C(O)=O,-1.2011
2772,B-2773,butralin,"InChI=1S/C14H21N3O4/c1-6-9(2)15-13-11(16(18)19)7-10(14(3,4)5)8-12(13)17(20)21/h7-9,15H,6H2,1-5H3",SPNQRCTZKIBOAX-UHFFFAOYSA-N,CCC(C)Nc1c(cc(cc1[N+]([O-])=O)C(C)(C)C)[N+]([O-])=O,-5.4703
2773,B-2774,"ethanone, 1-(3,4,5-trihydroxyphenyl)-","InChI=1S/C8H8O4/c1-4(9)5-2-6(10)8(12)7(11)3-5/h2-3,10-12H,1H3",IBKQQKPQRYUGBJ-UHFFFAOYSA-N,CC(=O)c1cc(O)c(O)c(O)c1,-1.4711
2774,B-2775,isopropalin,"InChI=1S/C15H23N3O4/c1-5-7-16(8-6-2)15-13(17(19)20)9-12(11(3)4)10-14(15)18(21)22/h9-11H,5-8H2,1-4H3",NEKOXWSIMFDGMA-UHFFFAOYSA-N,CCCN(CCC)c1c(cc(cc1[N+]([O-])=O)C(C)C)[N+]([O-])=O,-6.4491
2775,B-2776,"phosphorohydrazidic acid, diphenyl ester","InChI=1S/C12H13N2O3P/c13-14-18(15,16-11-7-3-1-4-8-11)17-12-9-5-2-6-10-12/h1-10H,13H2,(H,14,15)",OTRWTWZSLKFJGX-UHFFFAOYSA-N,NN[P](=O)(Oc1ccccc1)Oc2ccccc2,-2.2373
2776,B-2777,tebuthiuron,"InChI=1S/C9H16N4OS/c1-9(2,3)6-11-12-8(15-6)13(5)7(14)10-4/h1-5H3,(H,10,14)",HBPDKDSFLXWOAE-UHFFFAOYSA-N,CNC(=O)N(C)c1sc(nn1)C(C)(C)C,-1.9606
2777,B-2778,methyl phenylsulfonyl acetate,"InChI=1S/C9H10O4S/c1-13-9(10)7-14(11,12)8-5-3-2-4-6-8/h2-6H,7H2,1H3",NLEAIFBNKPYTGN-UHFFFAOYSA-N,COC(=O)C[S](=O)(=O)c1ccccc1,-1.1406
2778,B-2779,"l-alanine, n-[(ethylthio)thioxomethyl]-","InChI=1S/C6H11NO2S2/c1-3-11-6(10)7-4(2)5(8)9/h4H,3H2,1-2H3,(H,7,10)(H,8,9)/t4-/m0/s1",WCIZDTOYENGUEG-BYPYZUCNSA-N,CCSC(=S)N[C@@H](C)C(O)=O,-0.9613
2779,B-2780,"1,2,3-benzenetricarboxylic acid, 5-bromo-","InChI=1S/C9H5BrO6/c10-3-1-4(7(11)12)6(9(15)16)5(2-3)8(13)14/h1-2H,(H,11,12)(H,13,14)(H,15,16)",JSTKTNCNRDMHRQ-UHFFFAOYSA-N,OC(=O)c1cc(Br)cc(C(O)=O)c1C(O)=O,-1.4481
2780,B-2781,"1,1-bis(p-meo-ph)-2-nitropropane","InChI=1S/C17H19NO4/c1-12(18(19)20)17(13-4-8-15(21-2)9-5-13)14-6-10-16(22-3)11-7-14/h4-12,17H,1-3H3",PFPRAVYUXJWMGK-UHFFFAOYSA-N,COc1ccc(cc1)C(C(C)[N+]([O-])=O)c2ccc(OC)cc2,-4.5446
2781,B-2782,dimefuron,"InChI=1S/C15H19ClN4O3/c1-15(2,3)12-18-20(14(22)23-12)11-7-6-9(8-10(11)16)17-13(21)19(4)5/h6-8H,1-5H3,(H,17,21)",DHWRNDJOGMTCPB-UHFFFAOYSA-N,CN(C)C(=O)Nc1ccc(N2N=C(OC2=O)C(C)(C)C)c(Cl)c1,-4.3258
2782,B-2783,cumylphenyl diphenyl phosphate,"InChI=1S/C27H25O4P/c1-21(2)23-18-24(22-12-6-3-7-13-22)20-27(19-23)31-32(28,29-25-14-8-4-9-15-25)30-26-16-10-5-11-17-26/h3-21H,1-2H3",KMLCDKUGVGTGBJ-UHFFFAOYSA-N,CC(C)c1cc(O[P](=O)(Oc2ccccc2)Oc3ccccc3)cc(c1)c4ccccc4,-6.8485
2783,B-2784,"2-propenoic acid, 7-bromo-5-chloro-8-quinolinyl","InChI=1S/C12H7BrClNO2/c1-2-10(16)17-12-8(13)6-9(14)7-4-3-5-15-11(7)12/h2-6H,1H2",YDNLKBDXQCHOTH-UHFFFAOYSA-N,Clc1cc(Br)c(OC(=O)C=C)c2ncccc12,-4.7168