,ID,Name,InChI,InChIKey,SMILES,Solubility
4829,C-180,n-methylacetanilide,"InChI=1S/C9H11NO/c1-8(11)10(2)9-6-4-3-5-7-9/h3-7H,1-2H3",LMTGCJANOQOGPI-UHFFFAOYSA-N,CN(C(C)=O)C1=CC=CC=C1,-0.75
4830,C-181,2-nitrophenol,"InChI=1S/C6H5NO3/c8-6-4-2-1-3-5(6)7(9)10/h1-4,8H",IQUPABOKLQSFBK-UHFFFAOYSA-N,OC1=C(C=CC=C1)[N+]([O-])=O,-1.75
4831,C-182,pentobarbital;  5-ethyl-5-(2-pentyl)barbituric  acid,"InChI=1S/C11H18N2O3/c1-4-6-7(3)11(5-2)8(14)12-10(16)13-9(11)15/h7H,4-6H2,1-3H3,(H2,12,13,14,15,16)",WEXRUCMBJFQVBZ-UHFFFAOYSA-N,CCCC(C)C1(CC)C(=O)NC(=O)NC1=O,-2.38
4832,C-183,"5,5-(spirocyclohexyl)thiobarbituric  acid;  5,5-spiropentamethylene-2-thiobarbituric acid","InChI=1S/C9H12N2O2S/c12-6-9(4-2-1-3-5-9)7(13)11-8(14)10-6/h1-5H2,(H2,10,11,12,13,14)",XIOUPQUYEUYPAW-UHFFFAOYSA-N,O=C1NC(=S)NC(=O)C12CCCCC2,-3.46
4833,C-184,4-aminopropiophenone;  4-propionylaniline; 4-propanoylaniline,"InChI=1S/C9H11NO/c1-2-9(11)7-3-5-8(10)6-4-7/h3-6H,2,10H2,1H3",FSWXOANXOQPCFF-UHFFFAOYSA-N,CCC(=O)C1=CC=C(N)C=C1,-2.64
4834,C-185,prasterone,"InChI=1S/C19H28O2/c1-18-9-7-13(20)11-12(18)3-4-14-15-5-6-17(21)19(15,2)10-8-16(14)18/h3,13-16,20H,4-11H2,1-2H3",FMGSKLZLMKYGDP-UHFFFAOYSA-N,CC12CCC3C(CC=C4CC(O)CCC34C)C1CCC2=O,-3.66
4835,C-186,"1,3,5-trichlorobenzene",InChI=1S/C6H3Cl3/c7-4-1-5(8)3-6(9)2-4/h1-3H,XKEFYDZQGKAQCN-UHFFFAOYSA-N,ClC1=CC(=CC(=C1)Cl)Cl,-4.64
4836,C-187,butalbital; 5-allyl-5-isobutylbarbituric  acid,"InChI=1S/C11H16N2O3/c1-4-5-11(6-7(2)3)8(14)12-10(16)13-9(11)15/h4,7H,1,5-6H2,2-3H3,(H2,12,13,14,15,16)",UZVHFVZFNXBMQJ-UHFFFAOYSA-N,CC(C)CC1(CC=C)C(=O)NC(=O)NC1=O,-2.12
4837,C-188,hexethal;  5-ethyl-5-hexylbarbituric acid,"InChI=1S/C12H20N2O3/c1-3-5-6-7-8-12(4-2)9(15)13-11(17)14-10(12)16/h3-8H2,1-2H3,(H2,13,14,15,16,17)",PSTVHRSUNBSVIJ-UHFFFAOYSA-N,CCCCCCC1(CC)C(=O)NC(=O)NC1=O,-3.05
4838,C-189,4-chlorobenzoic acid,"InChI=1S/C7H5ClO2/c8-6-3-1-5(2-4-6)7(9)10/h1-4H,(H,9,10)",XRHGYUZYPHTUJZ-UHFFFAOYSA-N,OC(=O)C1=CC=C(Cl)C=C1,-3.33
4839,C-190,"1,2,3-trichlorobenzene",InChI=1S/C6H3Cl3/c7-4-2-1-3-5(8)6(4)9/h1-3H,RELMFMZEBKVZJC-UHFFFAOYSA-N,ClC1=C(Cl)C(=CC=C1)Cl,-4.04
4840,C-191,"spiro-5,5-cyclooctylbarbituric  acid;  spiro-5,5-heptamethylenebarbituric acid","InChI=1S/C11H16N2O3/c14-8-11(9(15)13-10(16)12-8)6-4-2-1-3-5-7-11/h1-7H2,(H2,12,13,14,15,16)",RQNKKIXVVHCBKY-UHFFFAOYSA-N,O=C1NC(=O)C2(CCCCCCC2)C(=O)N1,-2.98
4841,C-192,1-adamantan-1'-yl-3-decylurea,"InChI=1S/C21H38N2O/c1-2-3-4-5-6-7-8-9-10-22-20(24)23-21-14-17-11-18(15-21)13-19(12-17)16-21/h17-19H,2-16H2,1H3,(H2,22,23,24)",KDYRDODPBAFNHJ-UHFFFAOYSA-N,CCCCCCCCCCNC(=O)N[C]12C[CH]3[CH2]C([CH2][CH](C3)C1)C2,-5.83
4842,C-193,4-fluoroacetanilide,"InChI=1S/C8H8FNO/c1-6(11)10-8-4-2-7(9)3-5-8/h2-5H,1H3,(H,10,11)",JHEFOJNPLXSWNZ-UHFFFAOYSA-N,CC(=O)NC1=CC=C(F)C=C1,-1.95
4843,C-194,vinbarbital;  5-ethyl-5-(1-methyl-1-butenyl)barbituric  acid,"InChI=1S/C11H16N2O3/c1-4-6-7(3)11(5-2)8(14)12-10(16)13-9(11)15/h6H,4-5H2,1-3H3,(H2,12,13,14,15,16)/b7-6+",RAFOHKSPUDGZPR-VOTSOKGWSA-N,CC/C=C(C)/C1(CC)C(=O)NC(=O)NC1=O,-2.31
4844,C-195,3-chlorobenzoic acid,"InChI=1S/C7H5ClO2/c8-6-3-1-2-5(4-6)7(9)10/h1-4H,(H,9,10)",LULAYUGMBFYYEX-UHFFFAOYSA-N,OC(=O)C1=CC(=CC=C1)Cl,-2.59
4845,C-196,indole,"InChI=1S/C8H7N/c1-2-4-8-7(3-1)5-6-9-8/h1-6,9H",SIKJAQJRHWYJAI-UHFFFAOYSA-N,[NH]1C=CC2=C1C=CC=C2,-1.21
4846,C-197,talbutal;  5-allyl-5-sec-butylbarbituric  acid,"InChI=1S/C11H16N2O3/c1-4-6-11(7(3)5-2)8(14)12-10(16)13-9(11)15/h4,7H,1,5-6H2,2-3H3,(H2,12,13,14,15,16)",BJVVMKUXKQHWJK-UHFFFAOYSA-N,CCC(C)C1(CC=C)C(=O)NC(=O)NC1=O,-2.02
4847,C-198,phenoxyacetic  acid,"InChI=1S/C8H8O3/c9-8(10)6-11-7-4-2-1-3-5-7/h1-5H,6H2,(H,9,10)",LCPDWSOZIOUXRV-UHFFFAOYSA-N,OC(=O)COC1=CC=CC=C1,-0.96
4848,C-199,methyl  4-aminobenzoate,"InChI=1S/C8H9NO2/c1-11-8(10)6-2-4-7(9)5-3-6/h2-5H,9H2,1H3",LZXXNPOYQCLXRS-UHFFFAOYSA-N,COC(=O)C1=CC=C(N)C=C1,-2.02
4849,C-200,2-chlorobenzoic acid,"InChI=1S/C7H5ClO2/c8-6-4-2-1-3-5(6)7(9)10/h1-4H,(H,9,10)",IKCLCGXPQILATA-UHFFFAOYSA-N,OC(=O)C1=C(Cl)C=CC=C1,-2.06
4850,C-201,stanolone;   androstanolone;  dihydrotestosterone,"InChI=1S/C19H30O2/c1-18-9-7-13(20)11-12(18)3-4-14-15-5-6-17(21)19(15,2)10-8-16(14)18/h12,14-17,21H,3-11H2,1-2H3",NVKAWKQGWWIWPM-UHFFFAOYSA-N,CC12CCC3C(CCC4CC(=O)CCC34C)C1CCC2O,-4.74
4851,C-202,4-acetylaminophenol;  4-hydroxyacetanilide;  paracetamol;  acetaminophen,"InChI=1S/C8H9NO2/c1-6(10)9-7-2-4-8(11)5-3-7/h2-5,11H,1H3,(H,9,10)",RZVAJINKPMORJF-UHFFFAOYSA-N,CC(=O)NC1=CC=C(O)C=C1,-0.88
4852,C-203,methyl 4-hydroxybenzoate;  methylparaben,"InChI=1S/C8H8O3/c1-11-8(10)6-2-4-7(9)5-3-6/h2-5,9H,1H3",LXCFILQKKLGQFO-UHFFFAOYSA-N,COC(=O)C1=CC=C(O)C=C1,-1.78
4853,C-204,4-anisic  acid;  4-methoxybenzoic  acid,"InChI=1S/C8H8O3/c1-11-7-4-2-6(3-5-7)8(9)10/h2-5H,1H3,(H,9,10)",ZEYHEAKUIGZSGI-UHFFFAOYSA-N,COC1=CC=C(C=C1)C(O)=O,-2.89
4854,C-205,oxamyl;  vydate,"InChI=1S/C7H13N3O3S/c1-8-7(12)13-9-5(14-4)6(11)10(2)3/h1-4H3,(H,8,12)/b9-5-",KZAUOCCYDRDERY-UITAMQMPSA-N,CNC(=O)O/N=C(SC)/C(=O)N(C)C,0.11
4855,C-206,3-acetylaminophenol;  3-hydroxyacetanilide,"InChI=1S/C8H9NO2/c1-6(10)9-7-3-2-4-8(11)5-7/h2-5,11H,1H3,(H,9,10)",QLNWXBAGRTUKKI-UHFFFAOYSA-N,CC(=O)NC1=CC=CC(=C1)O,-1.06
4856,C-207,5-ethyl-5-heptylbarbituric  acid,"InChI=1S/C13H22N2O3/c1-3-5-6-7-8-9-13(4-2)10(16)14-12(18)15-11(13)17/h3-9H2,1-2H3,(H2,14,15,16,17,18)",FLJQERBDKWFELA-UHFFFAOYSA-N,CCCCCCCC1(CC)C(=O)NC(=O)NC1=O,-3.43
4857,C-208,1-chloro-2-nitrobenzene,InChI=1S/C6H4ClNO2/c7-5-3-1-2-4-6(5)8(9)10/h1-4H,BFCFYVKQTRLZHA-UHFFFAOYSA-N,[O-][N+](=O)C1=C(Cl)C=CC=C1,-2.55
4858,C-209,3-anisic  acid;  3-methoxybenzoic  acid,"InChI=1S/C8H8O3/c1-11-7-4-2-3-6(5-7)8(9)10/h2-5H,1H3,(H,9,10)",XHQZJYCNDZAGLW-UHFFFAOYSA-N,COC1=CC(=CC=C1)C(O)=O,-1.93
4859,C-210,4-cyanobenzoic  acid,"InChI=1S/C8H5NO2/c9-5-6-1-3-7(4-2-6)8(10)11/h1-4H,(H,10,11)",ADCUEPOHPCPMCE-UHFFFAOYSA-N,OC(=O)C1=CC=C(C=C1)C#N,-2.25
4860,C-211,methyl cinnamate;  cinnamic acid methyl ester,"InChI=1S/C10H10O2/c1-12-10(11)8-7-9-5-3-2-4-6-9/h2-8H,1H3/b8-7+",CCRCUPLGCSFEDV-BQYQJAHWSA-N,COC(=O)/C=C/C1=CC=CC=C1,-2.67
4861,C-212,2-acetylaminophenol;  2-hydroxyacetanilide,"InChI=1S/C8H9NO2/c1-6(10)9-7-4-2-3-5-8(7)11/h2-5,11H,1H3,(H,9,10)",ADVGKWPZRIDURE-UHFFFAOYSA-N,CC(=O)NC1=C(O)C=CC=C1,-2.13
4862,C-213,"2,3-dichloroanisole;  1-methoxy-2,3-dichlorobenzene","InChI=1S/C7H6Cl2O/c1-10-6-4-2-3-5(8)7(6)9/h2-4H,1H3",HFEASCCDHUVYKU-UHFFFAOYSA-N,COC1=C(Cl)C(=CC=C1)Cl,-3.31
4863,C-214,"fenuron;  1,1-dimethyl-3-phenylurea;  n,n-dimethyl-n'-phenylurea","InChI=1S/C9H12N2O/c1-11(2)9(12)10-8-6-4-3-5-7-8/h3-7H,1-2H3,(H,10,12)",XXOYNJXVWVNOOJ-UHFFFAOYSA-N,CN(C)C(=O)NC1=CC=CC=C1,-1.84
4864,C-215,d(-)(r)-mandelic  acid,"InChI=1S/C8H8O3/c9-7(8(10)11)6-4-2-1-3-5-6/h1-5,7,9H,(H,10,11)",IWYDHOAUDWTVEP-UHFFFAOYSA-N,OC(C(O)=O)C1=CC=CC=C1,-0.14
4865,C-216,vanillin;  4-hydroxy-3-methoxybenzaldehyde,"InChI=1S/C8H8O3/c1-11-8-4-6(5-9)2-3-7(8)10/h2-5,10H,1H3",MWOOGOJBHIARFG-UHFFFAOYSA-N,COC1=CC(=CC=C1O)C=O,-1.14
4866,C-217,2-anisic  acid;  2-methoxybenzoic  acid,"InChI=1S/C8H8O3/c1-11-7-5-3-2-4-6(7)8(9)10/h2-5H,1H3,(H,9,10)",ILUJQPXNXACGAN-UHFFFAOYSA-N,COC1=CC=CC=C1C(O)=O,-1.6
4867,C-218,5-isopropyl-5-(3-methyl-2-butenyl)barbituric  acid,"InChI=1S/C12H18N2O3/c1-7(2)5-6-12(8(3)4)9(15)13-11(17)14-10(12)16/h5,8H,6H2,1-4H3,(H2,13,14,15,16,17)",ZCDHRBAYNFWZBH-UHFFFAOYSA-N,CC(C)C1(CC=C(C)C)C(=O)NC(=O)NC1=O,-2.59
4868,C-219,benzotriazole,"InChI=1S/C6H5N3/c1-2-4-6-5(3-1)7-9-8-6/h1-4H,(H,7,8,9)",QRUDEWIWKLJBPS-UHFFFAOYSA-N,[NH]1N=NC2=C1C=CC=C2,-0.77
4869,C-220,4-methylsalicylic  acid;  2-hydroxy-4-methylbenzoic acid,"InChI=1S/C8H8O3/c1-5-2-3-6(8(10)11)7(9)4-5/h2-4,9H,1H3,(H,10,11)",NJESAXZANHETJV-UHFFFAOYSA-N,CC1=CC(=C(C=C1)C(O)=O)O,-2.9
4870,C-221,secobarbital; 5-allyl-5(sec-amyl)barbituric  acid,"InChI=1S/C12H18N2O3/c1-4-6-8(3)12(7-5-2)9(15)13-11(17)14-10(12)16/h5,8H,2,4,6-7H2,1,3H3,(H2,13,14,15,16,17)",KQPKPCNLIDLUMF-UHFFFAOYSA-N,CCCC(C)C1(CC=C)C(=O)NC(=O)NC1=O,-2.14
4871,C-222,5-methylsalicylic  acid,"InChI=1S/C8H8O3/c1-5-2-3-7(9)6(4-5)8(10)11/h2-4,9H,1H3,(H,10,11)",DLGBEGBHXSAQOC-UHFFFAOYSA-N,CC1=CC(=C(O)C=C1)C(O)=O,-2.76
4872,C-223,3-chlorophenyl  isothiocyanate;  1-chloro-3-isothiocyanatobenzene,InChI=1S/C7H4ClNS/c8-6-2-1-3-7(4-6)9-5-10/h1-4H,WGXCKFMVBAOIFH-UHFFFAOYSA-N,ClC1=CC=CC(=C1)N=C=S,-3.95
4873,C-224,"2,6-dichlorobenzonitrile;  dichlobenil",InChI=1S/C7H3Cl2N/c8-6-2-1-3-7(9)5(6)4-10/h1-3H,YOYAIZYFCNQIRF-UHFFFAOYSA-N,ClC1=CC=CC(=C1C#N)Cl,-4.24
4874,C-225,acephate;  orthene,"InChI=1S/C4H10NO3PS/c1-4(6)5-9(7,8-2)10-3/h1-3H3,(H,5,6,7)",YASYVMFAVPKPKE-UHFFFAOYSA-N,CO[P](=O)(NC(C)=O)SC,0.54
4875,C-226,5-ethyl-5-octylbarbituric  acid,"InChI=1S/C14H24N2O3/c1-3-5-6-7-8-9-10-14(4-2)11(17)15-13(19)16-12(14)18/h3-10H2,1-2H3,(H2,15,16,17,18,19)",NTYYDJWPKCQQIB-UHFFFAOYSA-N,CCCCCCCCC1(CC)C(=O)NC(=O)NC1=O,-3.94
4876,C-227,4-nonylphenol,"InChI=1S/C15H24O/c1-2-3-4-5-6-7-8-9-14-10-12-15(16)13-11-14/h10-13,16H,2-9H2,1H3",IGFHQQFPSIBGKE-UHFFFAOYSA-N,CCCCCCCCCC1=CC=C(O)C=C1,-4.5
4877,C-228,aldicarb  sulfone,"InChI=1S/C7H14N2O4S/c1-7(2,14(4,11)12)5-9-13-6(10)8-3/h5H,1-4H3,(H,8,10)/b9-5+",YRRKLBAKDXSTNC-WEVVVXLNSA-N,CNC(=O)O\N=C\C(C)(C)[S](C)(=O)=O,-1.35
4878,C-229,3-nitrobenzaldehyde,InChI=1S/C7H5NO3/c9-5-6-2-1-3-7(4-6)8(10)11/h1-5H,ZETIVVHRRQLWFW-UHFFFAOYSA-N,[O-][N+](=O)C1=CC=CC(=C1)C=O,-1.98
4879,C-230,ethyl  4-aminobenzoate;  benzocaine,"InChI=1S/C9H11NO2/c1-2-12-9(11)7-3-5-8(10)6-4-7/h3-6H,2,10H2,1H3",BLFLLBZGZJTVJG-UHFFFAOYSA-N,CCOC(=O)C1=CC=C(N)C=C1,-2.19
4880,C-231,thiopental;  5-ethyl-5-(2-pentyl)-2-thiobarbituric  acid,"InChI=1S/C11H18N2O2S/c1-4-6-7(3)11(5-2)8(14)12-10(16)13-9(11)15/h7H,4-6H2,1-3H3,(H2,12,13,14,15,16)",IUJDSEJGGMCXSG-UHFFFAOYSA-N,CCCC(C)C1(CC)C(=O)NC(=S)NC1=O,-3.6
4881,C-232,testosterone,"InChI=1S/C19H28O2/c1-18-9-7-13(20)11-12(18)3-4-14-15-5-6-17(21)19(15,2)10-8-16(14)18/h11,14-17,21H,3-10H2,1-2H3",MUMGGOZAMZWBJJ-UHFFFAOYSA-N,CC12CCC3C(CCC4=CC(=O)CCC34C)C1CCC2O,-3.62
4882,C-233,cyclobarbital;  phanodorm,"InChI=1S/C12H16N2O3/c1-2-12(8-6-4-3-5-7-8)9(15)13-11(17)14-10(12)16/h6H,2-5,7H2,1H3,(H2,13,14,15,16,17)",WTYGAUXICFETTC-UHFFFAOYSA-N,CCC1(C(=O)NC(=O)NC1=O)C2=CCCCC2,-2.02
4883,C-234,ethyl 4-hydroxybenzoate;  ethylparaben,"InChI=1S/C9H10O3/c1-2-12-9(11)7-3-5-8(10)6-4-7/h3-6,10H,2H2,1H3",NUVBSKCKDOMJSU-UHFFFAOYSA-N,CCOC(=O)C1=CC=C(O)C=C1,-2.2
4884,C-235,2-nitrobenzaldehyde,InChI=1S/C7H5NO3/c9-5-6-3-1-2-4-7(6)8(10)11/h1-5H,CMWKITSNTDAEDT-UHFFFAOYSA-N,[O-][N+](=O)C1=C(C=O)C=CC=C1,-1.82
4885,C-236,5-ethylbarbituric acid,"InChI=1S/C6H8N2O3/c1-2-3-4(9)7-6(11)8-5(3)10/h3H,2H2,1H3,(H2,7,8,9,10,11)",FMTLDVACNZDTQL-UHFFFAOYSA-N,CCC1C(=O)NC(=O)NC1=O,-0.92
4886,C-237,2-chloroacetanilide,"InChI=1S/C8H8ClNO/c1-6(11)10-8-5-3-2-4-7(8)9/h2-5H,1H3,(H,10,11)",KNVQTRVKSOEHPU-UHFFFAOYSA-N,CC(=O)NC1=C(Cl)C=CC=C1,-1.4
4887,C-238,4-aminosalicylic  acid;  pas,"InChI=1S/C7H7NO3/c8-4-1-2-5(7(10)11)6(9)3-4/h1-3,9H,8H2,(H,10,11)",WUBBRNOQWQTFEX-UHFFFAOYSA-N,NC1=CC(=C(C=C1)C(O)=O)O,-1.96
4888,C-239,5-aminosalicylic  acid;  mesalamine;  mesalazine,"InChI=1S/C7H7NO3/c8-4-1-2-6(9)5(3-4)7(10)11/h1-3,9H,8H2,(H,10,11)",KBOPZPXVLCULAV-UHFFFAOYSA-N,NC1=CC(=C(O)C=C1)C(O)=O,-2.26
4889,C-240,hexobarbital,"InChI=1S/C12H16N2O3/c1-12(8-6-4-3-5-7-8)9(15)13-11(17)14(2)10(12)16/h6H,3-5,7H2,1-2H3,(H,13,15,17)",UYXAWHWODHRRMR-UHFFFAOYSA-N,CN1C(=O)NC(=O)C(C)(C1=O)C2=CCCCC2,-2.99
4890,C-241,"1,4-dibromobenzene",InChI=1S/C6H4Br2/c7-5-1-2-6(8)4-3-5/h1-4H,SWJPEBQEEAHIGZ-UHFFFAOYSA-N,BrC1=CC=C(Br)C=C1,-4.07
4891,C-242,3-cyanophenyl  isothiocyanate; 3-isothiocyanatobenzonitrile,InChI=1S/C8H4N2S/c9-5-7-2-1-3-8(4-7)10-6-11/h1-4H,UXCYPHCFQAFVFH-UHFFFAOYSA-N,S=C=NC1=CC=CC(=C1)C#N,-3.19
4892,C-243,n-(4-methoxyphenyl)acetamide;  4-methoxyacetanilide,"InChI=1S/C9H11NO2/c1-7(11)10-8-3-5-9(12-2)6-4-8/h3-6H,1-2H3,(H,10,11)",XVAIDCNLVLTVFM-UHFFFAOYSA-N,COC1=CC=C(NC(C)=O)C=C1,-1.04
4893,C-244,methyl  4-methoxybenzoate,"InChI=1S/C9H10O3/c1-11-8-5-3-7(4-6-8)9(10)12-2/h3-6H,1-2H3",DDIZAANNODHTRB-UHFFFAOYSA-N,COC(=O)C1=CC=C(OC)C=C1,-2.34
4894,C-245,dl-phenylalanine,"InChI=1S/C9H11NO2/c10-8(9(11)12)6-7-4-2-1-3-5-7/h1-5,8H,6,10H2,(H,11,12)",COLNVLDHVKWLRT-UHFFFAOYSA-N,NC(CC1=CC=CC=C1)C(O)=O,-1.07
4895,C-246,5-ethyl-5-nonylbarbituric acid,"InChI=1S/C15H26N2O3/c1-3-5-6-7-8-9-10-11-15(4-2)12(18)16-14(20)17-13(15)19/h3-11H2,1-2H3,(H2,16,17,18,19,20)",KMXPZGOJCXKDSG-UHFFFAOYSA-N,CCCCCCCCCC1(CC)C(=O)NC(=O)NC1=O,-4.46
4896,C-247,methyl 4-(3-adamantan-1-ylureido)butanoate; 4-(3-adamantan-1-ylureido)butanoic acid methyl ester,"InChI=1S/C16H26N2O3/c1-21-14(19)3-2-4-17-15(20)18-16-8-11-5-12(9-16)7-13(6-11)10-16/h11-13H,2-10H2,1H3,(H2,17,18,20)",ZHGXICWKWFWBKM-UHFFFAOYSA-N,COC(=O)CCCNC(=O)N[C]12C[CH]3[CH2]C([CH2][CH](C3)C1)C2,-2.25
4897,C-248,propham;  isopropyl  n-(phenyl)carbamate,"InChI=1S/C10H13NO2/c1-8(2)13-10(12)11-9-6-4-3-5-7-9/h3-8H,1-2H3,(H,11,12)",VXPLXMJHHKHSOA-UHFFFAOYSA-N,CC(C)OC(=O)NC1=CC=CC=C1,-3.0
4898,C-249,3-methylindole;  skatole,"InChI=1S/C9H9N/c1-7-6-10-9-5-3-2-4-8(7)9/h2-6,10H,1H3",ZFRKQXVRDFCRJG-UHFFFAOYSA-N,CC1=C[NH]C2=C1C=CC=C2,-2.42
4899,C-250,"epinephrine; 3,4-dihydroxy-alpha-[(methylamino)methyl]benzyl  alcohol; adrenaline","InChI=1S/C9H13NO3/c1-10-5-9(13)6-2-3-7(11)8(12)4-6/h2-4,9-13H,5H2,1H3",UCTWMZQNUQWSLP-UHFFFAOYSA-N,CNCC(O)C1=CC(=C(O)C=C1)O,-2.74
4900,C-251,"2,5-dihydroxybenzoic   acid;  gentisic  acid","InChI=1S/C7H6O4/c8-4-1-2-6(9)5(3-4)7(10)11/h1-3,8-9H,(H,10,11)",WXTMDXOMEHJXQO-UHFFFAOYSA-N,OC(=O)C1=CC(=CC=C1O)O,-0.85
4901,C-252,3-ethoxy-4-hydroxybenzaldehyde,"InChI=1S/C9H10O3/c1-2-12-9-5-7(6-10)3-4-8(9)11/h3-6,11H,2H2,1H3",CBOQJANXLMLOSS-UHFFFAOYSA-N,CCOC1=C(O)C=CC(=C1)C=O,-1.77
4902,C-253,metronidazole,"InChI=1S/C6H9N3O3/c1-5-7-4-6(9(11)12)8(5)2-3-10/h4,10H,2-3H2,1H3",VAOCPAMSLUNLGC-UHFFFAOYSA-N,CC1=NC=C([N]1CCO)[N+]([O-])=O,-1.17
4903,C-254,5-tert-butyl-5-(3-methylbut-2-enyl)barbituric  acid,"InChI=1S/C13H20N2O3/c1-8(2)6-7-13(12(3,4)5)9(16)14-11(18)15-10(13)17/h6H,7H2,1-5H3,(H2,14,15,16,17,18)",DRLSBGXFFUXZIN-UHFFFAOYSA-N,CC(C)=CCC1(C(=O)NC(=O)NC1=O)C(C)(C)C,-3.55
4904,C-255,naphthalene,InChI=1S/C10H8/c1-2-6-10-8-4-3-7-9(10)5-1/h1-8H,UFWIBTONFRDIAS-UHFFFAOYSA-N,C1=CC2=C(C=C1)C=CC=C2,-3.77
4905,C-256,4-acetamidobenzaldehyde; 4-acetylaminobenzaldehyde,"InChI=1S/C9H9NO2/c1-7(12)10-9-4-2-8(6-11)3-5-9/h2-6H,1H3,(H,10,12)",SKLUWKYNZNXSLX-UHFFFAOYSA-N,CC(=O)NC1=CC=C(C=O)C=C1,-1.63
4906,C-257,"3,4-dimethoxybenzaldehyde","InChI=1S/C9H10O3/c1-11-8-4-3-7(6-10)5-9(8)12-2/h3-6H,1-2H3",WJUFSDZVCOTFON-UHFFFAOYSA-N,COC1=C(OC)C=C(C=O)C=C1,-1.42
4907,C-258,"2,5-dimethoxybenzaldehyde","InChI=1S/C9H10O3/c1-11-8-3-4-9(12-2)7(5-8)6-10/h3-6H,1-2H3",AFUKNJHPZAVHGQ-UHFFFAOYSA-N,COC1=CC(=C(OC)C=C1)C=O,-2.32
4908,C-259,cyromazine,"InChI=1S/C6H10N6/c7-4-10-5(8)12-6(11-4)9-3-1-2-3/h3H,1-2H2,(H5,7,8,9,10,11,12)",LVQDKIWDGQRHTE-UHFFFAOYSA-N,NC1=NC(=NC(=N1)NC2CC2)N,-1.11
4909,C-260,risocaine;  propyl  4-aminobenzoate;  4-aminobenzoic acid propyl ester,"InChI=1S/C10H13NO2/c1-2-7-13-10(12)8-3-5-9(11)6-4-8/h3-6H,2,7,11H2,1H3",NBFQYHKHPBMJJV-UHFFFAOYSA-N,CCCOC(=O)C1=CC=C(N)C=C1,-2.54
4910,C-261,heptabarbital;  5-(1-cyclohepten-1-yl)-5-ethylbarbituric acid,"InChI=1S/C13H18N2O3/c1-2-13(9-7-5-3-4-6-8-9)10(16)14-12(18)15-11(13)17/h7H,2-6,8H2,1H3,(H2,14,15,16,17,18)",PAZQYDJGLKSCSI-UHFFFAOYSA-N,CCC1(C(=O)NC(=O)NC1=O)C2=CCCCCC2,-3.0
4911,C-262,"2,4,6-trichlorophenol","InChI=1S/C6H3Cl3O/c7-3-1-4(8)6(10)5(9)2-3/h1-2,10H",LINPIYWFGCPVIE-UHFFFAOYSA-N,OC1=C(Cl)C=C(Cl)C=C1Cl,-2.39
4912,C-263,isoquinoline,InChI=1S/C9H7N/c1-2-4-9-7-10-6-5-8(9)3-1/h1-7H,AWJUIBRHMBBTKR-UHFFFAOYSA-N,C1=CC2=C(C=C1)C=NC=C2,-1.46
4913,C-264,17-methyltestosterone,"InChI=1S/C20H30O2/c1-18-9-6-14(21)12-13(18)4-5-15-16(18)7-10-19(2)17(15)8-11-20(19,3)22/h12,15-17,22H,4-11H2,1-3H3",GCKMFJBGXUYNAG-UHFFFAOYSA-N,CC1(O)CCC2C3CCC4=CC(=O)CCC4(C)C3CCC12C,-3.92
4914,C-265,propylparaben;  propyl 4-hydroxybenzoate,"InChI=1S/C10H12O3/c1-2-7-13-10(12)8-3-5-9(11)6-4-8/h3-6,11H,2,7H2,1H3",QELSKZZBTMNZEB-UHFFFAOYSA-N,CCCOC(=O)C1=CC=C(O)C=C1,-2.68
4915,C-266,"spiro-5,5-decamethylenebarbituric acid","InChI=1S/C14H22N2O3/c17-11-14(12(18)16-13(19)15-11)9-7-5-3-1-2-4-6-8-10-14/h1-10H2,(H2,15,16,17,18,19)",COBKAOXSLALTLT-UHFFFAOYSA-N,O=C1NC(=O)C2(CCCCCCCCCC2)C(=O)N1,-4.59
4916,C-267,"4-isothiocyanato-n,n-dimethylaniline","InChI=1S/C9H10N2S/c1-11(2)9-5-3-8(4-6-9)10-7-12/h3-6H,1-2H3",HRDJPEMAGYHSJR-UHFFFAOYSA-N,CN(C)C1=CC=C(C=C1)N=C=S,-4.13
4917,C-268,thiamylal;  5-allyl-5-sec-amylthiobarbituric  acid,"InChI=1S/C12H18N2O2S/c1-4-6-8(3)12(7-5-2)9(15)13-11(17)14-10(12)16/h5,8H,2,4,6-7H2,1,3H3,(H2,13,14,15,16,17)",XLOMZPUITCYLMJ-UHFFFAOYSA-N,CCCC(C)C1(CC=C)C(=O)NC(=S)NC1=O,-3.46
4918,C-269,guaifenesin;  guaiphenesin;  glyceryl  guaiacolate,"InChI=1S/C10H14O4/c1-13-9-4-2-3-5-10(9)14-7-8(12)6-11/h2-5,8,11-12H,6-7H2,1H3",HSRJKNPTNIJEKV-UHFFFAOYSA-N,COC1=CC=CC=C1OCC(O)CO,-0.6
4919,C-270,2-methylbenzimidazole,"InChI=1S/C8H8N2/c1-6-9-7-4-2-3-5-8(7)10-6/h2-5H,1H3,(H,9,10)",LDZYRENCLPUXAX-UHFFFAOYSA-N,CC1=NC2=C([NH]1)C=CC=C2,-1.96
4920,C-271,4-bromobenzoic acid,"InChI=1S/C7H5BrO2/c8-6-3-1-5(2-4-6)7(9)10/h1-4H,(H,9,10)",TUXYZHVUPGXXQG-UHFFFAOYSA-N,OC(=O)C1=CC=C(Br)C=C1,-3.85
4921,C-272,orotic  acid; uracil-6-carboxylic  acid,"InChI=1S/C5H4N2O4/c8-3-1-2(4(9)10)6-5(11)7-3/h1H,(H,9,10)(H2,6,7,8,11)",PXQPEWDEAKTCGB-UHFFFAOYSA-N,OC(=O)C1=CC(=O)NC(=O)N1,-1.94
4922,C-273,norethindrone;  norethisterone,"InChI=1S/C20H26O2/c1-3-20(22)11-9-18-17-6-4-13-12-14(21)5-7-15(13)16(17)8-10-19(18,20)2/h1,12,15-18,22H,4-11H2,2H3",VIKNJXKGJWUCNN-UHFFFAOYSA-N,CC12CCC3C(CCC4=CC(=O)CCC34)C1CCC2(O)C#C,-4.63
4923,C-274,3-bromobenzoic acid,"InChI=1S/C7H5BrO2/c8-6-3-1-2-5(4-6)7(9)10/h1-4H,(H,9,10)",VOIZNVUXCQLQHS-UHFFFAOYSA-N,OC(=O)C1=CC(=CC=C1)Br,-2.87
4924,C-275,phenacetin;  4-ethoxyacetanilide;  4-acetophenetidide,"InChI=1S/C10H13NO2/c1-3-13-10-6-4-9(5-7-10)11-8(2)12/h4-7H,3H2,1-2H3,(H,11,12)",CPJSUEIXXCENMM-UHFFFAOYSA-N,CCOC1=CC=C(NC(C)=O)C=C1,-2.21
4925,C-276,"phthalazine;  benzo[d]pyridazine;  4,5-benzopyridazine",InChI=1S/C8H6N2/c1-2-4-8-6-10-9-5-7(8)3-1/h1-6H,LFSXCDWNBUNEEM-UHFFFAOYSA-N,C1=CC2=C(C=C1)C=NN=C2,-0.42
4926,C-277,2-(phenylhydrazono)malononitrile,"InChI=1S/C9H6N4/c10-6-9(7-11)13-12-8-4-2-1-3-5-8/h1-5,12H",MENUYOGJCXAFFU-UHFFFAOYSA-N,N#CC(=NNC1=CC=CC=C1)C#N,-3.36
4927,C-278,quinoxaline,InChI=1S/C8H6N2/c1-2-4-8-7(3-1)9-5-6-10-8/h1-6H,XSCHRSMBECNVNS-UHFFFAOYSA-N,C1=CC2=C(C=C1)N=CC=N2,0.71
4928,C-279,"1,2,4,5-tetrachlorobenzene",InChI=1S/C6H2Cl4/c7-3-1-4(8)6(10)2-5(3)9/h1-2H,JHBKHLUZVFWLAG-UHFFFAOYSA-N,ClC1=C(Cl)C=C(Cl)C(=C1)Cl,-5.56
4929,C-280,5-isopropylbarbituric  acid,"InChI=1S/C7H10N2O3/c1-3(2)4-5(10)8-7(12)9-6(4)11/h3-4H,1-2H3,(H2,8,9,10,11,12)",GFPIGNBQTXNNAG-UHFFFAOYSA-N,CC(C)C1C(=O)NC(=O)NC1=O,-1.46
4930,C-281,prostaglandin e1;  alprostadil,"InChI=1S/C20H34O5/c1-2-3-6-9-15(21)12-13-17-16(18(22)14-19(17)23)10-7-4-5-8-11-20(24)25/h12-13,15-17,19,21,23H,2-11,14H2,1H3,(H,24,25)/b13-12+",GMVPRGQOIOIIMI-OUKQBFOZSA-N,CCCCCC(O)/C=C/C1C(O)CC(=O)C1CCCCCCC(O)=O,-3.67
4931,C-282,"1,2,3,5-tetrachlorobenzene",InChI=1S/C6H2Cl4/c7-3-1-4(8)6(10)5(9)2-3/h1-2H,QZYNWJQFTJXIRN-UHFFFAOYSA-N,ClC1=CC(=C(Cl)C(=C1)Cl)Cl,-4.79
4932,C-283,pentafluorophenol,InChI=1S/C6HF5O/c7-1-2(8)4(10)6(12)5(11)3(1)9/h12H,XBNGYFFABRKICK-UHFFFAOYSA-N,OC1=C(F)C(=C(F)C(=C1F)F)F,-0.52
4933,C-284,heptachlor,"InChI=1S/C10H5Cl7/c11-4-2-1-3-5(4)9(15)7(13)6(12)8(3,14)10(9,16)17/h1-5H",FRCCEHPWNOQAEU-UHFFFAOYSA-N,ClC1C=CC2C1C3(Cl)C(=C(Cl)C2(Cl)C3(Cl)Cl)Cl,-7.1
4934,C-285,"1,2,3,4-tetrachlorobenzene",InChI=1S/C6H2Cl4/c7-3-1-2-4(8)6(10)5(3)9/h1-2H,GBDZXPJXOMHESU-UHFFFAOYSA-N,ClC1=C(Cl)C(=C(Cl)C=C1)Cl,-4.25
4935,C-286,2-bromobenzoic acid,"InChI=1S/C7H5BrO2/c8-6-4-2-1-3-5(6)7(9)10/h1-4H,(H,9,10)",XRXMNWGCKISMOH-UHFFFAOYSA-N,OC(=O)C1=C(Br)C=CC=C1,-2.05
4936,C-287,chlordimeform,"InChI=1S/C10H13ClN2/c1-8-6-9(11)4-5-10(8)12-7-13(2)3/h4-7H,1-3H3",STUSTWKEFDQFFZ-UHFFFAOYSA-N,CN(C)C=NC1=C(C)C=C(Cl)C=C1,-2.88
4937,C-288,butamben;  butyl  4-aminobenzoate,"InChI=1S/C11H15NO2/c1-2-3-8-14-11(13)9-4-6-10(12)7-5-9/h4-7H,2-3,8,12H2,1H3",IUWVALYLNVXWKX-UHFFFAOYSA-N,CCCCOC(=O)C1=CC=C(N)C=C1,-3.13
4938,C-289,"terephthalic  acid;  benzene-1,4-dicarboxylic acid","InChI=1S/C8H6O4/c9-7(10)5-1-2-6(4-3-5)8(11)12/h1-4H,(H,9,10)(H,11,12)",KKEYFWRCBNTPAC-UHFFFAOYSA-N,OC(=O)C1=CC=C(C=C1)C(O)=O,-4.19