,ID,Name,InChI,InChIKey,SMILES,Solubility
2257,B-2258,"di-tert-butylperoxy-3,3,5-trimethylcyclohexane p","InChI=1S/C17H34O4/c1-13-10-16(8,9)12-17(11-13,20-18-14(2,3)4)21-19-15(5,6)7/h13H,10-12H2,1-9H3",NALFRYPTRXKZPN-UHFFFAOYSA-N,CC1CC(C)(C)CC(C1)(OOC(C)(C)C)OOC(C)(C)C,-5.7025
2258,B-2259,"1,2-benzenedicarboxylic acid, 3-nitro-, 2-methyl","InChI=1S/C9H7NO6/c1-16-9(13)7-5(8(11)12)3-2-4-6(7)10(14)15/h2-4H,1H3,(H,11,12)",UTEQVEMDYYOJGM-UHFFFAOYSA-N,COC(=O)c1c(cccc1[N+]([O-])=O)C(O)=O,-2.0853
2259,B-2260,"phthalic acid, 3-nitro-, 2-propyl ester","InChI=1S/C11H11NO6/c1-6(2)18-11(15)7-4-3-5-8(12(16)17)9(7)10(13)14/h3-6H,1-2H3,(H,13,14)/p-1",UWMQVYAFMSNSPZ-UHFFFAOYSA-M,CC(C)OC(=O)c1cccc(c1C([O-])=O)[N+]([O-])=O,-2.3466
2260,B-2261,"phthalic acid, 3-nitro-, 2-isopropyl ester","InChI=1S/C11H11NO6/c1-6(2)18-11(15)9-7(10(13)14)4-3-5-8(9)12(16)17/h3-6H,1-2H3,(H,13,14)/p-1",VLYOOXLMUKHFNY-UHFFFAOYSA-M,CC(C)OC(=O)c1c(cccc1[N+]([O-])=O)C([O-])=O,-2.4897
2261,B-2262,"phthalic acid, 3-nitro-, 2-isobutyl ester","InChI=1S/C12H13NO6/c1-12(2,3)19-11(16)7-5-4-6-8(13(17)18)9(7)10(14)15/h4-6H,1-3H3,(H,14,15)/p-1",ITMRQGQCULJEJR-UHFFFAOYSA-M,CC(C)(C)OC(=O)c1cccc(c1C([O-])=O)[N+]([O-])=O,-3.0467
2262,B-2263,"phthalic acid, 3-nitro-, isopentyl ester","InChI=1S/C13H15NO6/c1-8(2)6-7-20-13(17)9-4-3-5-10(14(18)19)11(9)12(15)16/h3-5,8H,6-7H2,1-2H3,(H,15,16)/p-1",WDTZUHJWPOQOFX-UHFFFAOYSA-M,CC(C)CCOC(=O)c1cccc(c1C([O-])=O)[N+]([O-])=O,-3.0689
2263,B-2264,"phosphinic acid, mesityl-","InChI=1S/C9H13O2P/c1-6-4-7(2)9(12(10)11)8(3)5-6/h4-5,12H,1-3H3,(H,10,11)",URXMWXKQTQWZQB-UHFFFAOYSA-N,Cc1cc(C)c(c(C)c1)[PH](O)=O,-2.7896
2264,B-2265,sec-butyl methyl ether,"InChI=1S/C5H12O/c1-4-5(2)6-3/h5H,4H2,1-3H3",FVNIMHIOIXPIQT-UHFFFAOYSA-N,CCC(C)OC,-0.7306
2265,B-2266,"1,3-propanediol, 2-(2-propenyloxy)-","InChI=1S/C6H12O3/c1-2-3-9-6(4-7)5-8/h2,6-8H,1,3-5H2",IGDCJKDZZUALAO-UHFFFAOYSA-N,OCC(CO)OCC=C,0.48100000000000004
2266,B-2267,"guanidine, n-methyl-n,n'-dinitro-","InChI=1S/C2H5N5O4/c1-5(7(10)11)2(3)4-6(8)9/h1H3,(H2,3,4)",SRKQWNFPTBNUKE-UHFFFAOYSA-N,CN(C(/N)=N/[N+]([O-])=O)[N+]([O-])=O,-0.6104
2267,B-2268,"phthalic acid, 3-nitro-, 2-butyl ester","InChI=1S/C12H13NO6/c1-3-7(2)19-12(16)8-5-4-6-9(13(17)18)10(8)11(14)15/h4-7H,3H2,1-2H3,(H,14,15)/p-1",FMPUSJAPIITOEY-UHFFFAOYSA-M,CCC(C)OC(=O)c1cccc(c1C([O-])=O)[N+]([O-])=O,-2.7193
2268,B-2269,"3,4'-dichlorodiphenyl ether",InChI=1S/C12H8Cl2O/c13-9-4-6-11(7-5-9)15-12-3-1-2-10(14)8-12/h1-8H,HPRGYUWRGCTBAV-UHFFFAOYSA-N,Clc1ccc(Oc2cccc(Cl)c2)cc1,-4.7701
2269,B-2270,"1,2-dimethylcyclohexane (trans)","InChI=1S/C8H16/c1-7-5-3-4-6-8(7)2/h7-8H,3-6H2,1-2H3/t7-,8-/m0/s1",KVZJLSYJROEPSQ-YUMQZZPRSA-N,C[C@H]1CCCC[C@@H]1C,-4.3341
2270,B-2271,d-glutamic acid,"InChI=1S/C5H9NO4/c6-3(5(9)10)1-2-4(7)8/h3H,1-2,6H2,(H,7,8)(H,9,10)",WHUUTDBJXJRKMK-UHFFFAOYSA-N,NC(CCC(O)=O)C(O)=O,-1.2194
2271,B-2272,serine,"InChI=1S/C3H7NO3/c4-2(1-5)3(6)7/h2,5H,1,4H2,(H,6,7)/t2-/m0/s1",MTCFGRXMJLQNBG-REOHCLBHSA-N,N[C@@H](CO)C(O)=O,-0.3861
2272,B-2273,glutamic acid,"InChI=1S/C5H9NO4/c6-3(5(9)10)1-2-4(7)8/h3H,1-2,6H2,(H,7,8)(H,9,10)",WHUUTDBJXJRKMK-UHFFFAOYSA-N,NC(CCC(O)=O)C(O)=O,-0.9916
2273,B-2274,"2,4'-dichlorodiphenyl ether",InChI=1S/C12H8Cl2O/c13-9-5-7-10(8-6-9)15-12-4-2-1-3-11(12)14/h1-8H,MWKULKMSBBSGTP-UHFFFAOYSA-N,Clc1ccc(Oc2ccccc2Cl)cc1,-5.52
2274,B-2275,"acetamide, n,n'-(phenylmethylene)bis-","InChI=1S/C11H14N2O2/c1-8(14)12-11(13-9(2)15)10-6-4-3-5-7-10/h3-7,11H,1-2H3,(H,12,14)(H,13,15)",JFUUKHUKGAQKIW-UHFFFAOYSA-N,CC(=O)NC(NC(C)=O)c1ccccc1,-1.3144
2275,B-2276,malic acid,"InChI=1S/C4H6O5/c5-2(4(8)9)1-3(6)7/h2,5H,1H2,(H,6,7)(H,8,9)",BJEPYKJPYRNKOW-UHFFFAOYSA-N,OC(CC(O)=O)C(O)=O,0.8726
2276,B-2277,azodrin,"InChI=1S/C7H14NO5P/c1-6(5-7(9)8-2)13-14(10,11-3)12-4/h5H,1-4H3,(H,8,9)/b6-5+",KRTSDMXIXPKRQR-AATRIKPKSA-N,CNC(=O)\C=C(/C)O[P](=O)(OC)OC,0.6514
2277,B-2278,"benzene, 1,2,4,5-tetrachloro-3-methoxy-","InChI=1S/C7H4Cl4O/c1-12-7-5(10)3(8)2-4(9)6(7)11/h2H,1H3",WMMFIDNWZNCBCT-UHFFFAOYSA-N,COc1c(Cl)c(Cl)cc(Cl)c1Cl,-5.1307
2278,B-2279,"d-galactose, (aminocarbonyl)hydrazone","InChI=1S/C7H15N3O6/c8-7(16)10-9-1-3(12)5(14)6(15)4(13)2-11/h1,3-6,11-15H,2H2,(H3,8,10,16)/b9-1+",NOUQGOYNEGWDCZ-XLUWADSXSA-N,NC(=O)N\N=C\C(O)C(O)C(O)C(O)CO,-0.4257
2279,B-2280,"nicotinic acid, butyl ester","InChI=1S/C10H13NO2/c1-2-3-7-13-10(12)9-5-4-6-11-8-9/h4-6,8H,2-3,7H2,1H3",DQULIMIQTCDUAN-UHFFFAOYSA-N,CCCCOC(=O)c1cccnc1,-1.8367
2280,B-2281,"1,3-propanediol, monobenzoate","InChI=1S/C10H12O3/c11-7-4-8-13-10(12)9-5-2-1-3-6-9/h1-3,5-6,11H,4,7-8H2",BZISNWGGPWSXTK-UHFFFAOYSA-N,OCCCOC(=O)c1ccccc1,-1.2558
2281,B-2282,"pteridine, 4-(methylthio)-","InChI=1S/C7H6N4S/c1-12-7-5-6(10-4-11-7)9-3-2-8-5/h2-4H,1H3",XKENOTHGZDIXRS-UHFFFAOYSA-N,CSc1ncnc2nccnc12,-2.365
2282,B-2283,dioxacarb,"InChI=1S/C11H13NO4/c1-12-11(13)16-9-5-3-2-4-8(9)10-14-6-7-15-10/h2-5,10H,6-7H2,1H3,(H,12,13)",SDKQRNRRDYRQKY-UHFFFAOYSA-N,CNC(=O)Oc1ccccc1C2OCCO2,-1.5706
2283,B-2284,isoleucine,"InChI=1S/C6H13NO2/c1-3-4(2)5(7)6(8)9/h4-5H,3,7H2,1-2H3,(H,8,9)",AGPKZVBTJJNPAG-UHFFFAOYSA-N,CCC(C)C(N)C(O)=O,-0.6525
2284,B-2285,4-chlorophenyl phenyl ether,InChI=1S/C12H9ClO/c13-10-6-8-12(9-7-10)14-11-4-2-1-3-5-11/h1-9H,PGPNJCAMHOJTEF-UHFFFAOYSA-N,Clc1ccc(Oc2ccccc2)cc1,-4.7925
2285,B-2286,asparagine,"InChI=1S/C4H8N2O3/c5-2(4(8)9)1-3(6)7/h2H,1,5H2,(H2,6,7)(H,8,9)",DCXYFEDJOCDNAF-UHFFFAOYSA-N,NC(CC(N)=O)C(O)=O,-0.8755
2286,B-2287,"benzene, 1-bromo-2-(1-methylethyl)-","InChI=1S/C9H11Br/c1-7(2)8-5-3-4-6-9(8)10/h3-7H,1-2H3",LECYCYNAEJDSIL-UHFFFAOYSA-N,CC(C)c1ccccc1Br,-4.1898
2287,B-2288,mcpp,"InChI=1S/C10H11ClO3/c1-6-5-8(11)3-4-9(6)14-7(2)10(12)13/h3-5,7H,1-2H3,(H,12,13)",WNTGYJSOUMFZEP-UHFFFAOYSA-N,CC(Oc1ccc(Cl)cc1C)C(O)=O,-2.4659999999999997
2288,B-2289,"phosphinic acid, dibutyl-, ethyl ester","InChI=1S/C10H23O2P/c1-4-7-9-13(11,12-6-3)10-8-5-2/h4-10H2,1-3H3",ODVIGXMRBJCIPC-UHFFFAOYSA-N,CCCC[P](=O)(CCCC)OCC,-1.2005
2289,B-2290,4-chloro-5-methyl-2-nitrophenol,"InChI=1S/C7H6ClNO3/c1-4-2-7(10)6(9(11)12)3-5(4)8/h2-3,10H,1H3",JBMGJOKJUYGIJH-UHFFFAOYSA-N,Cc1cc(O)c(cc1Cl)[N+]([O-])=O,-4.3901
2290,B-2291,"4-picoline, 2-chloro-6-methoxy-alpha,alpha,alpha","InChI=1S/C7H5Cl4NO/c1-13-6-3-4(7(9,10)11)2-5(8)12-6/h2-3H,1H3",RPCKKUFLSMORHB-UHFFFAOYSA-N,COc1cc(cc(Cl)n1)C(Cl)(Cl)Cl,-4.3635
2291,B-2292,"acetamide, n-acetyl-n-(4-ethoxyphenyl)-","InChI=1S/C12H15NO3/c1-4-16-12-7-5-11(6-8-12)13(9(2)14)10(3)15/h5-8H,4H2,1-3H3",QGKJDERCEAREGO-UHFFFAOYSA-N,CCOc1ccc(cc1)N(C(C)=O)C(C)=O,-1.9469999999999998
2292,B-2293,"phosphoric acid, dibutyl ethyl ester","InChI=1S/C10H23O4P/c1-4-7-9-13-15(11,12-6-3)14-10-8-5-2/h4-10H2,1-3H3",NAIBHQRYLPOHGG-UHFFFAOYSA-N,CCCCO[P](=O)(OCC)OCCCC,-1.8456
2293,B-2294,"phosphoric acid, dibutyl methyl ester","InChI=1S/C9H21O4P/c1-4-6-8-12-14(10,11-3)13-9-7-5-2/h4-9H2,1-3H3",LPRHLAXCXZTKNI-UHFFFAOYSA-N,CCCCO[P](=O)(OC)OCCCC,-1.4995
2294,B-2295,5-quinolinecarboxylic acid,"InChI=1S/C10H7NO2/c12-10(13)8-3-1-5-9-7(8)4-2-6-11-9/h1-6H,(H,12,13)",RAYMXZBXQCGRGX-UHFFFAOYSA-N,OC(=O)c1cccc2ncccc12,-2.6774
2295,B-2296,"chloramben, methyl ester","InChI=1S/C8H7Cl2NO2/c1-13-8(12)5-2-4(9)3-6(11)7(5)10/h2-3H,11H2,1H3",DTSSCQVCVYZGSI-UHFFFAOYSA-N,COC(=O)c1cc(Cl)cc(N)c1Cl,-3.2634
2296,B-2297,"2,2,3-trimethyl-3-pentanol","InChI=1S/C8H18O/c1-6-8(5,9)7(2,3)4/h9H,6H2,1-5H3",KLIHWYNSISMOMR-UHFFFAOYSA-N,CCC(C)(O)C(C)(C)C,-1.2708
2297,B-2298,"butanediamide, n,n,n',n'-tetramethyl-","InChI=1S/C8H16N2O2/c1-9(2)7(11)5-6-8(12)10(3)4/h5-6H2,1-4H3",RCWUFNWXCIKHPC-UHFFFAOYSA-N,CN(C)C(=O)CCC(=O)N(C)C,0.5035
2298,B-2299,"propanoic acid, 3,3'-diselenobis-","InChI=1S/C6H10O4Se2/c7-5(8)1-3-11-12-4-2-6(9)10/h1-4H2,(H,7,8)(H,9,10)",AXJLEYVRLPNPGF-UHFFFAOYSA-N,OC(=O)CC[Se][Se]CCC(O)=O,-2.2681
2299,B-2300,"2,5-piperazinedione, 1,4-bis(hydroxymethyl)-","InChI=1S/C6H10N2O4/c9-3-7-1-5(11)8(4-10)2-6(7)12/h9-10H,1-4H2",YJJCHWPBSSONRM-UHFFFAOYSA-N,OCN1CC(=O)N(CO)CC1=O,-0.4168
2300,B-2301,"barbituric acid, 5-ipr","InChI=1S/C7H10N2O3/c1-3(2)4-5(10)8-7(12)9-6(4)11/h3-4H,1-2H3,(H2,8,9,10,11,12)",GFPIGNBQTXNNAG-UHFFFAOYSA-N,CC(C)C1C(=O)NC(=O)NC1=O,-1.4556
2301,B-2302,"phosphonic acid, 4-morpholinyl-, diphenyl ester","InChI=1S/C16H18NO4P/c18-22(17-11-13-19-14-12-17,20-15-7-3-1-4-8-15)21-16-9-5-2-6-10-16/h1-10H,11-14H2",YHQZCZRZUDDZTA-UHFFFAOYSA-N,O=[P](Oc1ccccc1)(Oc2ccccc2)N3CCOCC3,-2.1425
2302,B-2303,n-methyl-n-nitrosoacetamide,InChI=1S/C3H6N2O2/c1-3(6)5(2)4-7/h1-2H3,FFLFWNRFMZRFKU-UHFFFAOYSA-N,CN(N=O)C(C)=O,-0.7684
2303,B-2304,endrin aldehyde,"InChI=1S/C12H8Cl6O/c13-8-5-3(2-19)1-4-6(5)9(14,12(8,17)18)11(16)7(4)10(8,11)15/h2-7H,1H2",HCTWZIFNBBCVGM-UHFFFAOYSA-N,ClC1(Cl)C2(Cl)C3C(CC4C3C1(Cl)C5(Cl)C4C25Cl)C=O,-7.2006
2304,B-2305,sulfur dioxide,InChI=1S/O2S/c1-3-2,RAHZWNYVWXNFOC-UHFFFAOYSA-N,O=[S]=O,0.2235
2305,B-2306,"benzenamine, n-ethyl-2,4,6-trinitro-","InChI=1S/C8H8N4O6/c1-2-9-8-6(11(15)16)3-5(10(13)14)4-7(8)12(17)18/h3-4,9H,2H2,1H3",JRLUWLIIVKSPPT-UHFFFAOYSA-N,CCNc1c(cc(cc1[N+]([O-])=O)[N+]([O-])=O)[N+]([O-])=O,-3.4085
2306,B-2307,"4-benzothiazolol, 2-amino-","InChI=1S/C7H6N2OS/c8-7-9-6-4(10)2-1-3-5(6)11-7/h1-3,10H,(H2,8,9)",PFQJPSASUCHKRO-UHFFFAOYSA-N,Nc1sc2cccc(O)c2n1,-1.9196
2307,B-2308,"3-furancarboxylic acid, tetrahydro-3-methyl-2-ox","InChI=1S/C6H8O4/c1-6(4(7)8)2-3-10-5(6)9/h2-3H2,1H3,(H,7,8)",OCGGZLKMMJSXBM-UHFFFAOYSA-N,CC1(CCOC1=O)C(O)=O,0.8412
2308,B-2309,"1,2-anthracenedicarboxylic acid, 9,10-dihydro-9,","InChI=1S/C16H8O6/c17-13-7-3-1-2-4-8(7)14(18)11-9(13)5-6-10(15(19)20)12(11)16(21)22/h1-6H,(H,19,20)(H,21,22)",QQPQYWGNVMIGAF-UHFFFAOYSA-N,OC(=O)c1ccc2C(=O)c3ccccc3C(=O)c2c1C(O)=O,-2.8141
2309,B-2310,"cytidine, 2',3'-dideoxy-","InChI=1S/C9H13N3O3/c10-7-3-4-12(9(14)11-7)8-2-1-6(5-13)15-8/h3-4,6,8,13H,1-2,5H2,(H2,10,11,14)/t6-,8+/m0/s1",WREGKURFCTUGRC-POYBYMJQSA-N,NC1=NC(=O)N(C=C1)[C@H]2CC[C@@H](CO)O2,-0.4416
2310,B-2311,"1,4-dioxane, 2,5-dimethoxy-2,5-dimethyl-","InChI=1S/C8H16O4/c1-7(9-3)5-12-8(2,10-4)6-11-7/h5-6H2,1-4H3",UUGSNNUEVKTATH-UHFFFAOYSA-N,COC1(C)COC(C)(CO1)OC,-1.246
2311,B-2312,"acetic acid, [2-methoxy-4-(1-propenyl)phenoxy]-","InChI=1S/C12H14O4/c1-3-4-9-5-6-10(11(7-9)15-2)16-8-12(13)14/h3-7H,8H2,1-2H3,(H,13,14)/p-1/b4-3+",UORQJKKOBXSGRG-ONEGZZNKSA-M,COc1cc(\C=C\C)ccc1OCC([O-])=O,-1.5826
2312,B-2313,azacyclotetradecan-2-one,"InChI=1S/C13H25NO/c15-13-11-9-7-5-3-1-2-4-6-8-10-12-14-13/h1-12H2,(H,14,15)",OETISESXIXCPAD-UHFFFAOYSA-N,O=C1CCCCCCCCCCCCN1,-2.6260000000000003
2313,B-2314,"benzenemethanol, 3,4,5-trichloro-","InChI=1S/C7H5Cl3O/c8-5-1-4(3-11)2-6(9)7(5)10/h1-2,11H,3H2",HZKGTRUEBFRMNO-UHFFFAOYSA-N,OCc1cc(Cl)c(Cl)c(Cl)c1,-3.0948
2314,B-2315,iodine,InChI=1S/I2/c1-2,PNDPGZBMCMUPRI-UHFFFAOYSA-N,II,-2.886
2315,B-2316,8-quinazolinol,"InChI=1S/C8H6N2O/c11-7-3-1-2-6-4-9-5-10-8(6)7/h1-5,11H",LNNRQIKKDKDFRV-UHFFFAOYSA-N,Oc1cccc2cncnc12,-2.0361
2316,B-2317,butane-1-thiosulfinic acid s-butyl ester,"InChI=1S/C8H18OS2/c1-3-5-7-10-11(9)8-6-4-2/h3-8H2,1-2H3",XSHPYKKTJQSNFE-UHFFFAOYSA-N,CCCCS[S](=O)CCCC,-2.2886
2317,B-2318,phenylethanolamine,"InChI=1S/C8H11NO/c9-6-8(10)7-4-2-1-3-5-7/h1-5,8,10H,6,9H2",ULSIYEODSMZIPX-UHFFFAOYSA-N,NCC(O)c1ccccc1,-0.4764
2318,B-2319,"2,3-dichlorobutane","InChI=1S/C4H8Cl2/c1-3(5)4(2)6/h3-4H,1-2H3",RMISVOPUIFJTEO-UHFFFAOYSA-N,CC(Cl)C(C)Cl,-2.3541
2319,B-2320,"2-furancarboxamide, n-hydroxy-n-phenyl-","InChI=1S/C11H9NO3/c13-11(10-7-4-8-15-10)12(14)9-5-2-1-3-6-9/h1-8,14H",CCTHSALYFOIKCZ-UHFFFAOYSA-N,ON(C(=O)c1occc1)c2ccccc2,-3.194
2320,B-2321,hydrogen fluoride,InChI=1S/FH/h1H,KRHYYFGTRYWZRS-UHFFFAOYSA-N,[H+].[F-],1.6988
2321,B-2322,sulfuric acid,"InChI=1S/H2O4S/c1-5(2,3)4/h(H2,1,2,3,4)",QAOWNCQODCNURD-UHFFFAOYSA-N,O[S](O)(=O)=O,1.0084
2322,B-2323,"nicotinic acid, propyl ester","InChI=1S/C9H11NO2/c1-2-6-12-9(11)8-4-3-5-10-7-8/h3-5,7H,2,6H2,1H3",CLAOCVVWIKGTOP-UHFFFAOYSA-N,CCCOC(=O)c1cccnc1,-1.2403
2323,B-2324,ronidazole,"InChI=1S/C6H8N4O4/c1-9-4(3-14-6(7)11)8-2-5(9)10(12)13/h2H,3H2,1H3,(H2,7,11)",PQFRTXSWDXZRRS-UHFFFAOYSA-N,Cn1c(COC(N)=O)ncc1[N+]([O-])=O,-1.8433
2324,B-2325,"dl-norleucine, n-acetyl-","InChI=1S/C8H15NO3/c1-3-4-5-7(8(11)12)9-6(2)10/h7H,3-5H2,1-2H3,(H,9,10)(H,11,12)",JDMCEGLQFSOMQH-UHFFFAOYSA-N,CCCCC(NC(C)=O)C(O)=O,-0.6823
2325,B-2326,phthalthrin,"InChI=1S/C19H25NO4/c1-11(2)9-14-15(19(14,3)4)18(23)24-10-20-16(21)12-7-5-6-8-13(12)17(20)22/h9,14-15H,5-8,10H2,1-4H3/t14-,15+/m1/s1",CXBMCYHAMVGWJQ-CABCVRRESA-N,CC(C)=C[C@@H]1[C@@H](C(=O)OCN2C(=O)C3=C(CCCC3)C2=O)C1(C)C,-5.2579
2326,B-2327,crotoxyphos,"InChI=1S/C14H19O6P/c1-11(20-21(16,17-3)18-4)10-14(15)19-12(2)13-8-6-5-7-9-13/h5-10,12H,1-4H3/b11-10+",XXXSILNSXNPGKG-ZHACJKMWSA-N,CO[P](=O)(OC)OC(/C)=C/C(=O)OC(C)c1ccccc1,-2.4973
2327,B-2328,"1-naphthalenecarboxylic acid, 2-chloro-","InChI=1S/C11H7ClO2/c12-9-6-5-7-3-1-2-4-8(7)10(9)11(13)14/h1-6H,(H,13,14)",HUNGHFUNVZTRKO-UHFFFAOYSA-N,OC(=O)c1c(Cl)ccc2ccccc12,-2.3152
2328,B-2329,pretilchlor,"InChI=1S/C17H26ClNO2/c1-4-11-21-12-10-19(16(20)13-18)17-14(5-2)8-7-9-15(17)6-3/h7-9H,4-6,10-13H2,1-3H3",YLPGTOIOYRQOHV-UHFFFAOYSA-N,CCCOCCN(C(=O)CCl)c1c(CC)cccc1CC,-3.795
2329,B-2330,tetrasodium pyrophosphate,"InChI=1S/4Na.H4O7P2/c;;;;1-8(2,3)7-9(4,5)6/h;;;;(H2,1,2,3)(H2,4,5,6)/q4*+1;/p-4",FQENQNTWSFEDLI-UHFFFAOYSA-J,[Na+].[Na+].[Na+].[Na+].[O-][P]([O-])(=O)O[P]([O-])([O-])=O,-0.5141
2330,B-2331,nitrogen,InChI=1S/N2/c1-2,IJGRMHOSHXDMSA-UHFFFAOYSA-N,N#N,-0.1901
2331,B-2332,copper sulfate pentahydrate,"InChI=1S/Cu.H2O4S.5H2O/c;1-5(2,3)4;;;;;/h;(H2,1,2,3,4);5*1H2/q+2;;;;;;/p-2",JZCCFEFSEZPSOG-UHFFFAOYSA-L,O.O.O.O.O.[Cu++].[O-][S]([O-])(=O)=O,-0.8922
2332,B-2333,arsenic acid,"InChI=1S/AsH3O4/c2-1(3,4)5/h(H3,2,3,4,5)",DJHGAFSJWGLOIV-UHFFFAOYSA-N,O[As](O)(O)=O,0.6187
2333,B-2334,oxygen,InChI=1S/O2/c1-2,MYMOFIZGZYHOMD-UHFFFAOYSA-N,O=O,0.0691
2334,B-2335,chlorine,InChI=1S/Cl2/c1-2,KZBUYRJDOAKODT-UHFFFAOYSA-N,ClCl,-1.0513
2335,B-2336,hydrogen sulfide,InChI=1S/H2S/h1H2,RWSOTUBLDIXVET-UHFFFAOYSA-N,S,-0.9596
2336,B-2337,mevinphos,"InChI=1S/C7H13O6P/c1-6(5-7(8)10-2)13-14(9,11-3)12-4/h5H,1-4H3/b6-5+",GEPDYQSQVLXLEU-AATRIKPKSA-N,COC(=O)\C=C(/C)O[P](=O)(OC)OC,0.4276
2337,B-2338,"1,1,1-trichloropropane","InChI=1S/C3H5Cl3/c1-2-3(4,5)6/h2H2,1H3",AVGQTJUPLKNPQP-UHFFFAOYSA-N,CCC(Cl)(Cl)Cl,-1.8898
2338,B-2339,terpineol,"InChI=1S/C10H18O/c1-8-4-6-9(7-5-8)10(2,3)11/h4,9,11H,5-7H2,1-3H3",WUOACPNHFRMFPN-UHFFFAOYSA-N,CC1=CCC(CC1)C(C)(C)O,-1.8916
2339,B-2340,demeton,"InChI=1S/2C8H19O3PS2/c1-4-10-12(9,11-5-2)14-8-7-13-6-3;1-4-9-12(13,10-5-2)11-7-8-14-6-3/h2*4-8H2,1-3H3",FAXIJTUDSBIMHY-UHFFFAOYSA-N,CCO[P](=O)(OCC)SCCSCC.CCO[P](=S)(OCC)OCCSCC,-3.9351
2340,B-2341,bufencarb,"InChI=1S/2C13H19NO2/c1-4-6-10(2)11-7-5-8-12(9-11)16-13(15)14-3;1-4-10(5-2)11-7-6-8-12(9-11)16-13(15)14-3/h5,7-10H,4,6H2,1-3H3,(H,14,15);6-10H,4-5H2,1-3H3,(H,14,15)",MYTVVMGUDBRCDJ-UHFFFAOYSA-N,CCCC(C)c1cccc(OC(=O)NC)c1.CCC(CC)c2cccc(OC(=O)NC)c2,-3.947
2341,B-2342,"ethanol, 2-(octyloxy)-","InChI=1S/C10H22O2/c1-2-3-4-5-6-7-9-12-10-8-11/h11H,2-10H2,1H3",ZQCIMPBZCZUDJM-UHFFFAOYSA-N,CCCCCCCCOCCO,-2.125
2342,B-2343,"butanenitrile, 2-hydroxy-3-methyl-, (r)-","InChI=1S/C5H9NO/c1-4(2)5(7)3-6/h4-5,7H,1-2H3/t5-/m0/s1",YRBPUNHOIVAUFA-YFKPBYRVSA-N,CC(C)[C@@H](O)C#N,0.3048
2343,B-2344,"1-butanol, 2-ethyl-, acetate","InChI=1S/C8H16O2/c1-4-8(5-2)6-10-7(3)9/h8H,4-6H2,1-3H3",HQLKZWRSOHTERR-UHFFFAOYSA-N,CCC(CC)COC(C)=O,-1.3528
2344,B-2345,"1,3-dichloropropene, (z)","InChI=1S/C3H4Cl2/c4-2-1-3-5/h1-2H,3H2/b2-1-",UOORRWUZONOOLO-UPHRSURJSA-N,ClC\C=C/Cl,-1.7067
2345,B-2346,"1,3-dichloropropene (trans)","InChI=1S/C3H4Cl2/c4-2-1-3-5/h1-2H,3H2/b2-1+",UOORRWUZONOOLO-OWOJBTEDSA-N,ClC/C=C/Cl,-1.598
2346,B-2347,"1,1-cyclopropanedicarboxylic acid, 2-methyl-","InChI=1S/C6H8O4/c1-3-2-6(3,4(7)8)5(9)10/h3H,2H2,1H3,(H,7,8)(H,9,10)",SPAYAPLBTKGPME-UHFFFAOYSA-N,CC1CC1(C(O)=O)C(O)=O,0.8412
2347,B-2348,"butanedioic acid, 2,2-diphenyl-","InChI=1S/C16H14O4/c17-14(18)11-16(15(19)20,12-7-3-1-4-8-12)13-9-5-2-6-10-13/h1-10H,11H2,(H,17,18)(H,19,20)",LVVXLDUCGFTWHJ-UHFFFAOYSA-N,OC(=O)CC(C(O)=O)(c1ccccc1)c2ccccc2,-2.4318
2348,B-2349,"2,2-dibromo-2-cyanoacetamide","InChI=1S/C3H2Br2N2O/c4-3(5,1-6)2(7)8/h(H2,7,8)",UUIVKBHZENILKB-UHFFFAOYSA-N,NC(=O)C(Br)(Br)C#N,-1.2075
2349,B-2350,glyburide,"InChI=1S/C23H28ClN3O5S/c1-32-21-12-9-17(24)15-20(21)22(28)25-14-13-16-7-10-19(11-8-16)33(30,31)27-23(29)26-18-5-3-2-4-6-18/h7-12,15,18H,2-6,13-14H2,1H3,(H,25,28)(H2,26,27,29)",ZNNLBTZKUZBEKO-UHFFFAOYSA-N,COc1ccc(Cl)cc1C(=O)NCCc2ccc(cc2)[S](=O)(=O)NC(=O)NC3CCCCC3,-5.0917
2350,B-2351,methamidophos,"InChI=1S/C2H8NO2PS/c1-5-6(3,4)7-2/h1-2H3,(H2,3,4)",NNKVPIKMPCQWCG-UHFFFAOYSA-N,CO[P](N)(=O)SC,0.8504
2351,B-2352,dialifor,"InChI=1S/C14H17ClNO4PS2/c1-3-19-21(22,20-4-2)23-12(9-15)16-13(17)10-7-5-6-8-11(10)14(16)18/h5-8,12H,3-4,9H2,1-2H3",MUMQYXACQUZOFP-UHFFFAOYSA-N,CCO[P](=S)(OCC)SC(CCl)N1C(=O)c2ccccc2C1=O,-6.3401
2352,B-2353,n-isobutylmorpholine,"InChI=1S/C8H17NO/c1-8(2)7-9-3-5-10-6-4-9/h8H,3-7H2,1-2H3",QKVSMSABRNCNRS-UHFFFAOYSA-N,CC(C)CN1CCOCC1,-0.7089
2353,B-2354,"l-tyrosine, n-acetyl-3,5-dibromo-","InChI=1S/C11H11Br2NO4/c1-5(15)14-9(11(17)18)4-6-2-7(12)10(16)8(13)3-6/h2-3,9,16H,4H2,1H3,(H,14,15)(H,17,18)/t9-/m0/s1",FNGNLZLLBCYMOG-VIFPVBQESA-N,CC(=O)N[C@@H](Cc1cc(Br)c(O)c(Br)c1)C(O)=O,-2.1830000000000003
2354,B-2355,6-quinolinecarboxylic acid,"InChI=1S/C10H7NO2/c12-10(13)8-3-4-9-7(6-8)2-1-5-11-9/h1-6H,(H,12,13)",VXGYRCVTBHVXMZ-UHFFFAOYSA-N,OC(=O)c1ccc2ncccc2c1,-0.0456
2355,B-2356,"3-pyridinecarboxamide, n-cyclohexyl-","InChI=1S/C12H16N2O/c15-12(10-5-4-8-13-9-10)14-11-6-2-1-3-7-11/h4-5,8-9,11H,1-3,6-7H2,(H,14,15)",VQRIASKDLZXYTO-UHFFFAOYSA-N,O=C(NC1CCCCC1)c2cccnc2,-2.319
2356,B-2357,3-hydroxycamphor,"InChI=1S/C10H16O2/c1-9(2)6-4-5-10(9,3)8(12)7(6)11/h6-7,11H,4-5H2,1-3H3",AXMKZEOEXSKFJI-UHFFFAOYSA-N,CC1(C)C2CCC1(C)C(=O)C2O,-0.9249
2357,B-2358,"benzenamine, 2-bromo-5-nitro-","InChI=1S/C6H5BrN2O2/c7-5-2-1-4(9(10)11)3-6(5)8/h1-3H,8H2",BAAUCXCLMDAZEL-UHFFFAOYSA-N,Nc1cc(ccc1Br)[N+]([O-])=O,-3.5583
2358,B-2359,"3-octyloxy-propane-1,2-diol","InChI=1S/C11H24O3/c1-2-3-4-5-6-7-8-14-10-11(13)9-12/h11-13H,2-10H2,1H3",GUPXYSSGJWIURR-UHFFFAOYSA-N,CCCCCCCCOCC(O)CO,-1.9208
2359,B-2360,mcpb-ethyl,"InChI=1S/C13H17ClO3/c1-3-16-13(15)5-4-8-17-12-7-6-11(14)9-10(12)2/h6-7,9H,3-5,8H2,1-2H3",XNKARWLGLZGMGX-UHFFFAOYSA-N,CCOC(=O)CCCOc1ccc(Cl)cc1C,-4.4095
2360,B-2361,resmethrin,"InChI=1S/C22H26O3/c1-15(2)10-19-20(22(19,3)4)21(23)25-14-17-12-18(24-13-17)11-16-8-6-5-7-9-16/h5-10,12-13,19-20H,11,14H2,1-4H3",VEMKTZHHVJILDY-UHFFFAOYSA-N,CC(C)=CC1C(C(=O)OCc2coc(Cc3ccccc3)c2)C1(C)C,-6.9509
2361,B-2362,bromperidol,"InChI=1S/C21H23BrFNO2/c22-18-7-5-17(6-8-18)21(26)11-14-24(15-12-21)13-1-2-20(25)16-3-9-19(23)10-4-16/h3-10,26H,1-2,11-15H2",RKLNONIVDFXQRX-UHFFFAOYSA-N,OC1(CCN(CCCC(=O)c2ccc(F)cc2)CC1)c3ccc(Br)cc3,-3.6693
2362,B-2363,"phenol, 2,3,4,6-tetrachloro-5-methyl-","InChI=1S/C7H4Cl4O/c1-2-3(8)5(10)6(11)7(12)4(2)9/h12H,1H3",ZGWPUIZMCCUZOK-UHFFFAOYSA-N,Cc1c(Cl)c(O)c(Cl)c(Cl)c1Cl,-4.6021
2363,B-2364,"phosphoric acid, ethyl dimethyl ester","InChI=1S/C4H11O4P/c1-4-8-9(5,6-2)7-3/h4H2,1-3H3",JQVXMIPNQMYRPE-UHFFFAOYSA-N,CCO[P](=O)(OC)OC,0.5112
2364,B-2365,terbufos sulfoxide,"InChI=1S/C9H21O3PS3/c1-6-11-13(14,12-7-2)15-8-16(10)9(3,4)5/h6-8H2,1-5H3",KKOYBOFPUBHPFO-UHFFFAOYSA-N,CCO[P](=S)(OCC)SC[S](=O)C(C)(C)C,-2.4421
2365,B-2366,nitrothal-isopropyl,"InChI=1S/C14H17NO6/c1-8(2)20-13(16)10-5-11(14(17)21-9(3)4)7-12(6-10)15(18)19/h5-9H,1-4H3",VJAWBEFMCIINFU-UHFFFAOYSA-N,CC(C)OC(=O)c1cc(cc(c1)[N+]([O-])=O)C(=O)OC(C)C,-5.0389
2366,B-2367,aroclor 1254,InChI=1S/C12H5Cl5/c13-8-3-1-2-6(10(8)15)7-4-5-9(14)12(17)11(7)16/h1-5H,AUGNBQPSMWGAJE-UHFFFAOYSA-N,Clc1cccc(c1Cl)c2ccc(Cl)c(Cl)c2Cl,-6.8803
2367,B-2368,azadirachtin,"InChI=1S/C35H44O16/c1-8-15(2)24(38)49-18-12-19(48-16(3)36)32(26(39)43-6)13-46-21-22(32)31(18)14-47-34(42,27(40)44-7)25(31)29(4,23(21)37)35-20-11-17(30(35,5)51-35)33(41)9-10-45-28(33)50-20/h8-10,17-23,25,28,37,41-42H,11-14H2,1-7H3/b15-8+/t17-,18+,19-,20+,21-,22-,23-,25+,28+,29-,30+,31+,32+,33+,34+,35+/m1/s1",FTNJWQUOZFUQQJ-NDAWSKJSSA-N,COC(=O)[C@@]1(O)OC[C@@]23[C@H](C[C@@H](OC(C)=O)[C@]4(CO[C@@H]([C@@H](O)[C@](C)([C@H]12)[C@]56O[C@@]5(C)[C@H]7C[C@@H]6O[C@@H]8OC=C[C@]78O)[C@H]34)C(=O)OC)OC(=O)C(/C)=C/C,-3.4428
2368,B-2369,ethephon,"InChI=1S/C2H6ClO3P/c3-1-2-7(4,5)6/h1-2H2,(H2,4,5,6)",UDPGUMQDCGORJQ-UHFFFAOYSA-N,O[P](O)(=O)CCCl,0.8401