,ID,Name,InChI,InChIKey,SMILES,Solubility
5152,C-503,"3,7-dimethylxanthine;  theobromine","InChI=1S/C7H8N4O2/c1-10-3-8-5-4(10)6(12)9-7(13)11(5)2/h3H,1-2H3,(H,9,12,13)",YAPQBXQYLJRXSA-UHFFFAOYSA-N,C[N]1C=NC2=C1C(=O)NC(=O)N2C,-3.3
5153,C-504,"triclopyr;  3,5,6-trichloro-2-pyridinyloxyacetic acid","InChI=1S/C7H4Cl3NO3/c8-3-1-4(9)7(11-6(3)10)14-2-5(12)13/h1H,2H2,(H,12,13)",REEQLXCGVXDJSQ-UHFFFAOYSA-N,OC(=O)COC1=C(Cl)C=C(Cl)C(=N1)Cl,-2.78
5154,C-505,"1,3-dimethylxanthine;  theophylline","InChI=1S/C7H8N4O2/c1-10-5-4(8-3-9-5)6(12)11(2)7(10)13/h3H,1-2H3,(H,8,9)",ZFXYFBGIUFBOJW-UHFFFAOYSA-N,CN1C(=O)N(C)C2=C(N=C[NH]2)C1=O,-1.35
5155,C-506,1-methylfluorene,"InChI=1S/C14H12/c1-10-5-4-8-13-12-7-3-2-6-11(12)9-14(10)13/h2-8H,9H2,1H3",GKEUODMJRFDLJY-UHFFFAOYSA-N,CC1=CC=CC2=C1CC3=C2C=CC=C3,-5.22
5156,C-507,vitavax;  carboxin,"InChI=1S/C12H13NO2S/c1-9-11(16-8-7-15-9)12(14)13-10-5-3-2-4-6-10/h2-6H,7-8H2,1H3,(H,13,14)",GYSSRZJIHXQEHQ-UHFFFAOYSA-N,CC1=C(SCCO1)C(=O)NC2=CC=CC=C2,-3.14
5157,C-508,nadolol,"InChI=1S/C17H27NO4/c1-17(2,3)18-9-12(19)10-22-16-6-4-5-11-7-14(20)15(21)8-13(11)16/h4-6,12,14-15,18-21H,7-10H2,1-3H3",VWPOSFSPZNDTMJ-UHFFFAOYSA-N,CC(C)(C)NCC(O)COC1=CC=CC2=C1CC(O)C(O)C2,-1.01
5158,C-509,pirimicarb,InChI=1S/C11H18N4O2/c1-7-8(2)12-10(14(3)4)13-9(7)17-11(16)15(5)6/h1-6H3,YFGYUFNIOHWBOB-UHFFFAOYSA-N,CN(C)C(=O)OC1=NC(=NC(=C1C)C)N(C)C,-1.95
5159,C-510,"3,5-dinitrobenzoic  acid","InChI=1S/C7H4N2O6/c10-7(11)4-1-5(8(12)13)3-6(2-4)9(14)15/h1-3H,(H,10,11)",VYWYYJYRVSBHJQ-UHFFFAOYSA-N,OC(=O)C1=CC(=CC(=C1)[N+]([O-])=O)[N+]([O-])=O,-2.21
5160,C-511,methyl  (phenylsulfonyl)acetate;  2-(phenylsulfonyl)acetic acid methyl ester,"InChI=1S/C9H10O4S/c1-13-9(10)7-14(11,12)8-5-3-2-4-6-8/h2-6H,7H2,1H3",NLEAIFBNKPYTGN-UHFFFAOYSA-N,COC(=O)C[S](=O)(=O)C1=CC=CC=C1,-1.14
5161,C-512,"alachlor;  metachlor; 2-chloro-n-(2,6-diethylphenyl)-n-(methoxymethyl)acetamide","InChI=1S/C14H20ClNO2/c1-4-11-7-6-8-12(5-2)14(11)16(10-18-3)13(17)9-15/h6-8H,4-5,9-10H2,1-3H3",XCSGPAVHZFQHGE-UHFFFAOYSA-N,CCC1=C(N(COC)C(=O)CCl)C(=CC=C1)CC,-3.26
5162,C-513,3-nitrophthalic acid,"InChI=1S/C8H5NO6/c10-7(11)4-2-1-3-5(9(14)15)6(4)8(12)13/h1-3H,(H,10,11)(H,12,13)",KFIRODWJCYBBHY-UHFFFAOYSA-N,OC(=O)C1=CC=CC(=C1C(O)=O)[N+]([O-])=O,-1.01
5163,C-514,prednisolone,"InChI=1S/C21H28O5/c1-19-7-5-13(23)9-12(19)3-4-14-15-6-8-21(26,17(25)11-22)20(15,2)10-16(24)18(14)19/h5,7,9,14-16,18,22,24,26H,3-4,6,8,10-11H2,1-2H3",OIGNJSKKLXVSLS-UHFFFAOYSA-N,CC12CC(O)C3C(CCC4=CC(=O)C=CC34C)C1CCC2(O)C(=O)CO,-3.24
5164,C-515,phenobarbital;  5-ethyl-5-phenylbarbituric  acid,"InChI=1S/C12H12N2O3/c1-2-12(8-6-4-3-5-7-8)9(15)13-11(17)14-10(12)16/h3-7H,2H2,1H3,(H2,13,14,15,16,17)",DDBREPKUVSBGFI-UHFFFAOYSA-N,CCC1(C(=O)NC(=O)NC1=O)C2=CC=CC=C2,-2.37
5165,C-516,thiazafluron,"InChI=1S/C6H7F3N4OS/c1-10-4(14)13(2)5-12-11-3(15-5)6(7,8)9/h1-2H3,(H,10,14)",BBJPZPLAZVZTGR-UHFFFAOYSA-N,CNC(=O)N(C)C1=NN=C(S1)C(F)(F)F,-1.98
5166,C-517,"1,3,5-trinitrobenzene",InChI=1S/C6H3N3O6/c10-7(11)4-1-5(8(12)13)3-6(2-4)9(14)15/h1-3H,UATJOMSPNYCXIX-UHFFFAOYSA-N,[O-][N+](=O)C1=CC(=CC(=C1)[N+]([O-])=O)[N+]([O-])=O,-2.89
5167,C-518,estriol,"InChI=1S/C18H24O3/c1-18-7-6-13-12-5-3-11(19)8-10(12)2-4-14(13)15(18)9-16(20)17(18)21/h3,5,8,13-17,19-21H,2,4,6-7,9H2,1H3",PROQIPRRNZUXQM-UHFFFAOYSA-N,CC12CCC3C(CCC4=CC(=CC=C34)O)C1CC(O)C2O,-4.95
5168,C-519,atropine;  hyoscyamine,"InChI=1S/C17H23NO3/c1-18-13-7-8-14(18)10-15(9-13)21-17(20)16(11-19)12-5-3-2-4-6-12/h2-6,13-16,19H,7-11H2,1H3",RKUNBYITZUJHSG-UHFFFAOYSA-N,CN1C2CCC1CC(C2)OC(=O)C(CO)C3=CC=CC=C3,-1.91
5169,C-520,estrone,"InChI=1S/C18H22O2/c1-18-9-8-14-13-5-3-12(19)10-11(13)2-4-15(14)16(18)6-7-17(18)20/h3,5,10,14-16,19H,2,4,6-9H2,1H3",DNXHEGUUPJUMQT-UHFFFAOYSA-N,CC12CCC3C(CCC4=C3C=CC(=C4)O)C1CCC2=O,-3.96
5170,C-521,methyl  1-(phenylsulfonyl)cyclopropane-1-carboxylate,"InChI=1S/C11H12O4S/c1-15-10(12)11(7-8-11)16(13,14)9-5-3-2-4-6-9/h2-6H,7-8H2,1H3",OACLWBSJZSLACO-UHFFFAOYSA-N,COC(=O)C1(CC1)[S](=O)(=O)C2=CC=CC=C2,-2.26
5171,C-522,antipyrine; phenazone,"InChI=1S/C11H12N2O/c1-9-8-11(14)13(12(9)2)10-6-4-3-5-7-10/h3-8H,1-2H3",VEQOALNAAJBPNY-UHFFFAOYSA-N,CN1N(C(=O)C=C1C)C2=CC=CC=C2,0.35
5172,C-523,sulfacetamide;  n1-(acetyl)sulfanilamide,"InChI=1S/C8H10N2O3S/c1-6(11)10-14(12,13)8-4-2-7(9)3-5-8/h2-5H,9H2,1H3,(H,10,11)",SKIVFJLNDNKQPD-UHFFFAOYSA-N,CC(=O)N[S](=O)(=O)C1=CC=C(N)C=C1,-1.41
5173,C-524,sulfaguanidine,"InChI=1S/C7H10N4O2S/c8-5-1-3-6(4-2-5)14(12,13)11-7(9)10/h1-4H,8H2,(H4,9,10,11)",BRBKOPJOKNSWSG-UHFFFAOYSA-N,NC(=N)N[S](=O)(=O)C1=CC=C(N)C=C1,-1.99
5174,C-525,diethofencarb,"InChI=1S/C14H21NO4/c1-5-17-12-8-7-11(9-13(12)18-6-2)15-14(16)19-10(3)4/h7-10H,5-6H2,1-4H3,(H,15,16)",LNJNFVJKDJYTEU-UHFFFAOYSA-N,CCOC1=C(OCC)C=C(NC(=O)OC(C)C)C=C1,-4.0
5175,C-526,tetrachloroisophthalonitrile;  chlorothalonil,InChI=1S/C8Cl4N2/c9-5-3(1-13)6(10)8(12)7(11)4(5)2-14,CRQQGFGUEAVUIL-UHFFFAOYSA-N,ClC1=C(Cl)C(=C(Cl)C(=C1Cl)C#N)C#N,-6.17
5176,C-527,pindolol,"InChI=1S/C14H20N2O2/c1-10(2)16-8-11(17)9-18-14-5-3-4-13-12(14)6-7-15-13/h3-7,10-11,15-17H,8-9H2,1-2H3",JZQKKSLKJUAGIC-UHFFFAOYSA-N,CC(C)NCC(O)COC1=CC=CC2=C1C=C[NH]2,-3.7
5177,C-528,"2-(2,4,5-trichlorophenoxy)propanoic acid;  silvex;  fenoprop","InChI=1S/C9H7Cl3O3/c1-4(9(13)14)15-8-3-6(11)5(10)2-7(8)12/h2-4H,1H3,(H,13,14)",ZLSWBLPERHFHIS-UHFFFAOYSA-N,CC(OC1=CC(=C(Cl)C=C1Cl)Cl)C(O)=O,-3.58
5178,C-529,fludrocortisone,"InChI=1S/C21H29FO5/c1-18-7-5-13(24)9-12(18)3-4-15-14-6-8-20(27,17(26)11-23)19(14,2)10-16(25)21(15,18)22/h9,14-16,23,25,27H,3-8,10-11H2,1-2H3",AAXVEMMRQDVLJB-UHFFFAOYSA-N,CC12CC(O)C3(F)C(CCC4=CC(=O)CCC34C)C1CCC2(O)C(=O)CO,-3.54
5179,C-530,fluoromethasone;  fluorometholone,"InChI=1S/C22H29FO4/c1-12-9-17-15-6-8-21(27,13(2)24)20(15,4)11-18(26)22(17,23)19(3)7-5-14(25)10-16(12)19/h5,7,10,12,15,17-18,26-27H,6,8-9,11H2,1-4H3",FAOZLTXFLGPHNG-UHFFFAOYSA-N,CC1CC2C3CCC(O)(C(C)=O)C3(C)CC(O)C2(F)C4(C)C=CC(=O)C=C14,-4.1
5180,C-531,2-naphthoxyacetic acid,"InChI=1S/C12H10O3/c13-12(14)8-15-11-6-5-9-3-1-2-4-10(9)7-11/h1-7H,8H2,(H,13,14)",RZCJYMOBWVJQGV-UHFFFAOYSA-N,OC(=O)COC1=CC2=C(C=CC=C2)C=C1,-3.36
5181,C-532,l-tryptophan,"InChI=1S/C11H12N2O2/c12-9(11(14)15)5-7-6-13-10-4-2-1-3-8(7)10/h1-4,6,9,13H,5,12H2,(H,14,15)",QIVBCDIJIAJPQS-UHFFFAOYSA-N,NC(CC1=C[NH]C2=C1C=CC=C2)C(O)=O,-1.18
5182,C-533,caffeine,"InChI=1S/C8H10N4O2/c1-10-4-9-6-5(10)7(13)12(3)8(14)11(6)2/h4H,1-3H3",RYYVLZVUVIJVGH-UHFFFAOYSA-N,C[N]1C=NC2=C1C(=O)N(C)C(=O)N2C,-0.91
5183,C-534,"oxamniquine;  6-hydroxymethyl-2-isopropylaminomethyl-7-nitro-1,2,3,4-tetrahydroquinoline","InChI=1S/C14H21N3O3/c1-9(2)15-7-12-4-3-10-5-11(8-18)14(17(19)20)6-13(10)16-12/h5-6,9,12,15-16,18H,3-4,7-8H2,1-2H3",XCGYUJZMCCFSRP-UHFFFAOYSA-N,CC(C)NCC1CCC2=C(N1)C=C(C(=C2)CO)[N+]([O-])=O,-2.97
5184,C-535,"4,5,6,7-tetrachlorophthalide",InChI=1S/C8H2Cl4O2/c9-4-2-1-14-8(13)3(2)5(10)7(12)6(4)11/h1H2,NMWKWBPNKPGATC-UHFFFAOYSA-N,ClC1=C(Cl)C2=C(C(=O)OC2)C(=C1Cl)Cl,-5.04
5185,C-536,carbazole;  dibenzopyrrole,"InChI=1S/C12H9N/c1-3-7-11-9(5-1)10-6-2-4-8-12(10)13-11/h1-8,13H",UJOBWOGCFQCDNV-UHFFFAOYSA-N,[NH]1C2=C(C=CC=C2)C3=C1C=CC=C3,-5.27
5186,C-537,methylprednisolone,"InChI=1S/C22H30O5/c1-12-8-14-15-5-7-22(27,18(26)11-23)21(15,3)10-17(25)19(14)20(2)6-4-13(24)9-16(12)20/h4,6,9,12,14-15,17,19,23,25,27H,5,7-8,10-11H2,1-3H3",VHRSUDSXCMQTMA-UHFFFAOYSA-N,CC1CC2C3CCC(O)(C(=O)CO)C3(C)CC(O)C2C4(C)C=CC(=O)C=C14,-3.49
5187,C-538,"dinoseb;  2,4-dinitro-6-sec-butylphenol;  2-sec-butyl-4,6-dinitrophenol","InChI=1S/C10H12N2O5/c1-3-6(2)8-4-7(11(14)15)5-9(10(8)13)12(16)17/h4-6,13H,3H2,1-2H3",OWZPCEFYPSAJFR-UHFFFAOYSA-N,CCC(C)C1=C(O)C(=CC(=C1)[N+]([O-])=O)[N+]([O-])=O,-3.67
5188,C-539,"4,4'-dichlorobiphenyl",InChI=1S/C12H8Cl2/c13-11-5-1-9(2-6-11)10-3-7-12(14)8-4-10/h1-8H,YTBRNEUEFCNVHC-UHFFFAOYSA-N,ClC1=CC=C(C=C1)C2=CC=C(Cl)C=C2,-6.6
5189,C-540,carbaryl;  1-naphthyl  n-methylcarbamate,"InChI=1S/C12H11NO2/c1-13-12(14)15-11-8-4-6-9-5-2-3-7-10(9)11/h2-8H,1H3,(H,13,14)",CVXBEEMKQHEXEN-UHFFFAOYSA-N,CNC(=O)OC1=CC=CC2=CC=CC=C12,-3.28
5190,C-541,antu;  1-naphthylthiourea,"InChI=1S/C11H10N2S/c12-11(14)13-10-7-3-5-8-4-1-2-6-9(8)10/h1-7H,(H3,12,13,14)",PIVQQUNOTICCSA-UHFFFAOYSA-N,NC(=S)NC1=CC=CC2=C1C=CC=C2,-2.53
5191,C-542,ethinyl  estradiol,"InChI=1S/C20H24O2/c1-3-20(22)11-9-18-17-6-4-13-12-14(21)5-7-15(13)16(17)8-10-19(18,20)2/h1,5,7,12,16-18,21-22H,4,6,8-11H2,2H3",BFPYWIDHMRZLRN-UHFFFAOYSA-N,CC12CCC3C(CCC4=CC(=CC=C34)O)C1CCC2(O)C#C,-4.47
5192,C-543,phenallymal;  alphenal;  5-allyl-5-phenylbarbituric  acid,"InChI=1S/C13H12N2O3/c1-2-8-13(9-6-4-3-5-7-9)10(16)14-12(18)15-11(13)17/h2-7H,1,8H2,(H2,14,15,16,17,18)",WOIGZSBYKGQJGL-UHFFFAOYSA-N,C=CCC1(C(=O)NC(=O)NC1=O)C2=CC=CC=C2,-2.37
5193,C-544,n-nitrosodiphenylamine,InChI=1S/C12H10N2O/c15-13-14(11-7-3-1-4-8-11)12-9-5-2-6-10-12/h1-10H,UBUCNCOMADRQHX-UHFFFAOYSA-N,O=NN(C1=CC=CC=C1)C2=CC=CC=C2,-3.75
5194,C-545,mephobarbital;  1-methylphenobarbital;  5-ethyl-1-methyl-5-phenylbarbituric  acid,"InChI=1S/C13H14N2O3/c1-3-13(9-7-5-4-6-8-9)10(16)14-12(18)15(2)11(13)17/h4-8H,3H2,1-2H3,(H,14,16,18)",ALARQZQTBTVLJV-UHFFFAOYSA-N,CCC1(C(=O)NC(=O)N(C)C1=O)C2=CC=CC=C2,-3.68
5195,C-546,"3,4-dichlorobiphenyl",InChI=1S/C12H8Cl2/c13-11-7-6-10(8-12(11)14)9-4-2-1-3-5-9/h1-8H,ZGHQUYZPMWMLBM-UHFFFAOYSA-N,ClC1=C(Cl)C=C(C=C1)C2=CC=CC=C2,-7.44
5196,C-547,dibenzofuran,InChI=1S/C12H8O/c1-3-7-11-9(5-1)10-6-2-4-8-12(10)13-11/h1-8H,TXCDCPKCNAJMEE-UHFFFAOYSA-N,O1C2=C(C=CC=C2)C3=C1C=CC=C3,-4.6
5197,C-548,"1,3,7-trichloronaphthalene",InChI=1S/C10H5Cl3/c11-7-2-1-6-3-8(12)5-10(13)9(6)4-7/h1-5H,CFEUGIGSIREATC-UHFFFAOYSA-N,ClC1=CC2=C(C=C1)C=C(Cl)C=C2Cl,-6.55
5198,C-549,"3,3'-dichlorobiphenyl",InChI=1S/C12H8Cl2/c13-11-5-1-3-9(7-11)10-4-2-6-12(14)8-10/h1-8H,KTXUOWUHFLBZPW-UHFFFAOYSA-N,ClC1=CC=CC(=C1)C2=CC=CC(=C2)Cl,-5.8
5199,C-550,"2,4'-dichlorobiphenyl",InChI=1S/C12H8Cl2/c13-10-7-5-9(6-8-10)11-3-1-2-4-12(11)14/h1-8H,UFNIBRDIUNVOMX-UHFFFAOYSA-N,ClC1=CC=C(C=C1)C2=C(Cl)C=CC=C2,-5.46
5200,C-551,methyl 1-(toluene-4-sulfonyl)cyclopropyl-1-carboxylate; 1-(toluene-4-sulfonyl)cyclopropanecarboxylic acid methyl ester,"InChI=1S/C12H14O4S/c1-9-3-5-10(6-4-9)17(14,15)12(7-8-12)11(13)16-2/h3-6H,7-8H2,1-2H3",GQFAQGSQOWKLHH-UHFFFAOYSA-N,COC(=O)C1(CC1)[S](=O)(=O)C2=CC=C(C)C=C2,-2.88
5201,C-552,bupivacaine,"InChI=1S/C18H28N2O/c1-4-5-12-20-13-7-6-11-16(20)18(21)19-17-14(2)9-8-10-15(17)3/h8-10,16H,4-7,11-13H2,1-3H3,(H,19,21)",LEBVLXFERQHONN-UHFFFAOYSA-N,CCCCN1CCCCC1C(=O)NC2=C(C)C=CC=C2C,-3.22
5202,C-553,scopolamine;  hyoscine,"InChI=1S/C17H21NO4/c1-18-13-7-11(8-14(18)16-15(13)22-16)21-17(20)12(9-19)10-5-3-2-4-6-10/h2-6,11-16,19H,7-9H2,1H3",STECJAGHUSJQJN-UHFFFAOYSA-N,CN1C2CC(CC1C3OC23)OC(=O)C(CO)C4=CC=CC=C4,-1.24
5203,C-554,metoclopramide,"InChI=1S/C14H22ClN3O2/c1-4-18(5-2)7-6-17-14(19)10-8-11(15)12(16)9-13(10)20-3/h8-9H,4-7,16H2,1-3H3,(H,17,19)",TTWJBBZEZQICBI-UHFFFAOYSA-N,CCN(CC)CCNC(=O)C1=CC(=C(N)C=C1OC)Cl,-3.18
5204,C-555,"2,3-dichlorobiphenyl",InChI=1S/C12H8Cl2/c13-11-8-4-7-10(12(11)14)9-5-2-1-3-6-9/h1-8H,XOMKZKJEJBZBJJ-UHFFFAOYSA-N,ClC1=CC=CC(=C1Cl)C2=CC=CC=C2,-5.35
5205,C-556,melphalan,"InChI=1S/C13H18Cl2N2O2/c14-5-7-17(8-6-15)11-3-1-10(2-4-11)9-12(16)13(18)19/h1-4,12H,5-9,16H2,(H,18,19)",SGDBTWWWUNNDEQ-UHFFFAOYSA-N,NC(CC1=CC=C(C=C1)N(CCCl)CCCl)C(O)=O,-3.49
5206,C-557,asulam;  n1-(methoxycarbonyl)sulfanilamide;  asulox,"InChI=1S/C8H10N2O4S/c1-14-8(11)10-15(12,13)7-4-2-6(9)3-5-7/h2-5H,9H2,1H3,(H,10,11)",VGPYEHKOIGNJKV-UHFFFAOYSA-N,COC(=O)N[S](=O)(=O)C1=CC=C(N)C=C1,-1.76
5207,C-558,"2,2'-dichlorobiphenyl",InChI=1S/C12H8Cl2/c13-11-7-3-1-5-9(11)10-6-2-4-8-12(10)14/h1-8H,JAYCNKDKIKZTAF-UHFFFAOYSA-N,ClC1=CC=CC=C1C2=C(Cl)C=CC=C2,-4.35
5208,C-559,deoxycorticosterone  acetate,"InChI=1S/C23H32O4/c1-14(24)27-13-21(26)20-7-6-18-17-5-4-15-12-16(25)8-10-22(15,2)19(17)9-11-23(18,20)3/h12,17-20H,4-11,13H2,1-3H3",VPGRYOFKCNULNK-UHFFFAOYSA-N,CC(=O)OCC(=O)C1CCC2C3CCC4=CC(=O)CCC4(C)C3CCC12C,-4.97
5209,C-560,"2,6-dichlorobiphenyl",InChI=1S/C12H8Cl2/c13-10-7-4-8-11(14)12(10)9-5-2-1-3-6-9/h1-8H,IYZWUWBAFUBNCH-UHFFFAOYSA-N,ClC1=C(C(=CC=C1)Cl)C2=CC=CC=C2,-4.97
5210,C-561,"o-tolidine;  3,3'-dimethylbenzidine;   4,4'-diamino-3,3'-dimethylbiphenyl","InChI=1S/C14H16N2/c1-9-7-11(3-5-13(9)15)12-4-6-14(16)10(2)8-12/h3-8H,15-16H2,1-2H3",NUIURNJTPRWVAP-UHFFFAOYSA-N,CC1=CC(=CC=C1N)C2=CC(=C(N)C=C2)C,-2.21
5211,C-562,acyclovir;  acv,"InChI=1S/C8H11N5O3/c9-8-11-6-5(7(15)12-8)10-3-13(6)4-16-2-1-14/h3,14H,1-2,4H2,(H3,9,11,12,15)",MKUXAQIIEYXACX-UHFFFAOYSA-N,NC1=NC2=C(N=C[N]2COCCO)C(=O)N1,-2.12
5212,C-563,pentachloronitrobenzene;  quintozene,InChI=1S/C6Cl5NO2/c7-1-2(8)4(10)6(12(13)14)5(11)3(1)9,LKPLKUMXSAEKID-UHFFFAOYSA-N,[O-][N+](=O)C1=C(Cl)C(=C(Cl)C(=C1Cl)Cl)Cl,-5.83
5213,C-564,mestranol,"InChI=1S/C21H26O2/c1-4-21(22)12-10-19-18-7-5-14-13-15(23-3)6-8-16(14)17(18)9-11-20(19,21)2/h1,6,8,13,17-19,22H,5,7,9-12H2,2-3H3",IMSSROKUHAOUJS-UHFFFAOYSA-N,COC1=CC=C2C3CCC4(C)C(CCC4(O)C#C)C3CCC2=C1,-5.49
5214,C-565,cortisone,"InChI=1S/C21H28O5/c1-19-7-5-13(23)9-12(19)3-4-14-15-6-8-21(26,17(25)11-22)20(15,2)10-16(24)18(14)19/h9,14-15,18,22,26H,3-8,10-11H2,1-2H3",MFYSYFVPBJMHGN-UHFFFAOYSA-N,CC12CCC(=O)C=C1CCC3C4CCC(O)(C(=O)CO)C4(C)CC(=O)C23,-3.11
5215,C-566,phenazopyridine,"InChI=1S/C11H11N5/c12-10-7-6-9(11(13)14-10)16-15-8-4-2-1-3-5-8/h1-7H,(H4,12,13,14)",QPFYXYFORQJZEC-UHFFFAOYSA-N,NC1=NC(=C(C=C1)N=NC2=CC=CC=C2)N,-4.24
5216,C-567,"2,6-diiodo-4-cyanophenol;  ioxynil","InChI=1S/C7H3I2NO/c8-5-1-4(3-10)2-6(9)7(5)11/h1-2,11H",NRXQIUSYPAHGNM-UHFFFAOYSA-N,OC1=C(I)C=C(C=C1I)C#N,-3.46
5217,C-568,"captan;  n-trichloromethylthio-3a,4,7,7a-tetrahydrophthalimide","InChI=1S/C9H8Cl3NO2S/c10-9(11,12)16-13-7(14)5-3-1-2-4-6(5)8(13)15/h1-2,5-6H,3-4H2",LDVVMCZRFWMZSG-UHFFFAOYSA-N,ClC(Cl)(Cl)SN1C(=O)C2CC=CCC2C1=O,-4.77
5218,C-569,benzoin,"InChI=1S/C14H12O2/c15-13(11-7-3-1-4-8-11)14(16)12-9-5-2-6-10-12/h1-10,13,15H",ISAOCJYIOMOJEB-UHFFFAOYSA-N,OC(C1=CC=CC=C1)C(=O)C2=CC=CC=C2,-2.85
5219,C-570,1-(toluene-4-sulfonyl)cyclopropanecarboxylic acid ethyl ester,"InChI=1S/C13H16O4S/c1-3-17-12(14)13(8-9-13)18(15,16)11-6-4-10(2)5-7-11/h4-7H,3,8-9H2,1-2H3",WPUICWRULLWSQY-UHFFFAOYSA-N,CCOC(=O)C1(CC1)[S](=O)(=O)C2=CC=C(C)C=C2,-3.01
5220,C-571,methyl 2-(4-chlorophenylsulfonyl)acetate;  2-(4-chlorophenylsulfonyl)acetic acid methyl ester,"InChI=1S/C9H9ClO4S/c1-14-9(11)6-15(12,13)8-4-2-7(10)3-5-8/h2-5H,6H2,1H3",RWMPWXCERLGUAF-UHFFFAOYSA-N,COC(=O)C[S](=O)(=O)C1=CC=C(Cl)C=C1,-2.38
5221,C-572,salicylanilide,"InChI=1S/C13H11NO2/c15-12-9-5-4-8-11(12)13(16)14-10-6-2-1-3-7-10/h1-9,15H,(H,14,16)",WKEDVNSFRWHDNR-UHFFFAOYSA-N,OC1=C(C=CC=C1)C(=O)NC2=CC=CC=C2,-3.59
5222,C-573,8-chlorotheophylline,"InChI=1S/C7H7ClN4O2/c1-11-4-3(9-6(8)10-4)5(13)12(2)7(11)14/h1-2H3,(H,9,10)",RYIGNEOBDRVTHA-UHFFFAOYSA-N,CN1C(=O)N(C)C2=C([NH]C(=N2)Cl)C1=O,-1.51
5223,C-574,anthracene,InChI=1S/C14H10/c1-2-6-12-10-14-8-4-3-7-13(14)9-11(12)5-1/h1-10H,MWPLVEDNUUSJAV-UHFFFAOYSA-N,C1=CC2=CC3=CC=CC=C3C=C2C=C1,-6.6
5224,C-575,propranolol,"InChI=1S/C16H21NO2/c1-12(2)17-10-14(18)11-19-16-9-5-7-13-6-3-4-8-15(13)16/h3-9,12,14,17-18H,10-11H2,1-2H3",AQHHHDLHHXJYJD-UHFFFAOYSA-N,CC(C)NCC(O)COC1=CC=CC2=C1C=CC=C2,-3.62
5225,C-576,"picric  acid;  2,4,6-trinitrophenol;","InChI=1S/C6H3N3O7/c10-6-4(8(13)14)1-3(7(11)12)2-5(6)9(15)16/h1-2,10H",OXNIZHLAWKMVMX-UHFFFAOYSA-N,OC1=C(C=C(C=C1[N+]([O-])=O)[N+]([O-])=O)[N+]([O-])=O,-1.97
5226,C-577,4-aminoantipyrine;  4-aminophenazone;  ampyrone,"InChI=1S/C11H13N3O/c1-8-10(12)11(15)14(13(8)2)9-6-4-3-5-7-9/h3-7H,12H2,1-2H3",RLFWWDJHLFCNIJ-UHFFFAOYSA-N,CN1N(C2=CC=CC=C2)C(=O)C(=C1C)N,0.31
5227,C-578,betamethasone,"InChI=1S/C22H29FO5/c1-12-8-16-15-5-4-13-9-14(25)6-7-19(13,2)21(15,23)17(26)10-20(16,3)22(12,28)18(27)11-24/h6-7,9,12,15-17,24,26,28H,4-5,8,10-11H2,1-3H3",UREBDLICKHMUKA-UHFFFAOYSA-N,CC1CC2C3CCC4=CC(=O)C=CC4(C)C3(F)C(O)CC2(C)C1(O)C(=O)CO,-3.83
5228,C-579,chlordecone;  kepone,"InChI=1S/C10Cl10O/c11-2-1(21)3(12)6(15)4(2,13)8(17)5(2,14)7(3,16)9(6,18)10(8,19)20",LHHGDZSESBACKH-UHFFFAOYSA-N,ClC1(Cl)C2(Cl)C3(Cl)C4(Cl)C(=O)C5(Cl)C3(Cl)C1(Cl)C5(Cl)C24Cl,-5.26
5229,C-580,"saccharin;  1,2-benzisothiazol-3(2h)-one 1,1-dioxide","InChI=1S/C7H5NO3S/c9-7-5-3-1-2-4-6(5)12(10,11)8-7/h1-4H,(H,8,9)",CVHZOJJKTDOEJC-UHFFFAOYSA-N,O=C1N[S](=O)(=O)C2=CC=CC=C12,-1.73
5230,C-581,"bisphenol a;  2,2-bis[4-hydroxyphenyl]propane","InChI=1S/C15H16O2/c1-15(2,11-3-7-13(16)8-4-11)12-5-9-14(17)10-6-12/h3-10,16-17H,1-2H3",IISBACLAFKSPIT-UHFFFAOYSA-N,CC(C)(C1=CC=C(O)C=C1)C2=CC=C(O)C=C2,-2.82
5231,C-582,1-benzenesulfonylcyclopentanecarboxylic acid methyl ester,"InChI=1S/C13H16O4S/c1-17-12(14)13(9-5-6-10-13)18(15,16)11-7-3-2-4-8-11/h2-4,7-8H,5-6,9-10H2,1H3",AXNXBYAMXGSWLR-UHFFFAOYSA-N,COC(=O)C1(CCCC1)[S](=O)(=O)C2=CC=CC=C2,-2.55
5232,C-583,n-phenylanthranilic  acid;  fenamic  acid,"InChI=1S/C13H11NO2/c15-13(16)11-8-4-5-9-12(11)14-10-6-2-1-3-7-10/h1-9,14H,(H,15,16)",ZWJINEZUASEZBH-UHFFFAOYSA-N,OC(=O)C1=CC=CC=C1NC2=CC=CC=C2,-4.96
5233,C-584,phenanthrene,InChI=1S/C14H10/c1-3-7-13-11(5-1)9-10-12-6-2-4-8-14(12)13/h1-10H,YNPNZTXNASCQKK-UHFFFAOYSA-N,C1=CC2=C(C=C1)C3=C(C=CC=C3)C=C2,-5.14
5234,C-585,acetazolamide,"InChI=1S/C4H6N4O3S2/c1-2(9)6-3-7-8-4(12-3)13(5,10)11/h1H3,(H2,5,10,11)(H,6,7,9)",BZKPWHYZMXOIDC-UHFFFAOYSA-N,CC(=O)NC1=NN=C(S1)[S](N)(=O)=O,-2.5
5235,C-586,triamcinolone,"InChI=1S/C21H27FO6/c1-18-6-5-12(24)7-11(18)3-4-13-14-8-15(25)21(28,17(27)10-23)19(14,2)9-16(26)20(13,18)22/h5-7,13-16,23,25-26,28H,3-4,8-10H2,1-2H3",GFNANZIMVAIWHM-UHFFFAOYSA-N,CC12CC(O)C3(F)C(CCC4=CC(=O)C=CC34C)C1CC(O)C2(O)C(=O)CO,-3.68
5236,C-587,"2,4'-dichlorodiphenyl  ether",InChI=1S/C12H8Cl2O/c13-9-5-7-10(8-6-9)15-12-4-2-1-3-11(12)14/h1-8H,MWKULKMSBBSGTP-UHFFFAOYSA-N,ClC1=CC=C(OC2=C(Cl)C=CC=C2)C=C1,-5.52
5237,C-588,methyl  1-(4-chlorophenylsulfonyl)cyclopropane-1-carboxylate; 1-(4-chlorophenylsulfonyl)cyclopropanecarboxylic acid methyl ester,"InChI=1S/C11H11ClO4S/c1-16-10(13)11(6-7-11)17(14,15)9-4-2-8(12)3-5-9/h2-5H,6-7H2,1H3",MKKNYRRAGXWBDZ-UHFFFAOYSA-N,COC(=O)C1(CC1)[S](=O)(=O)C2=CC=C(Cl)C=C2,-3.31
5238,C-589,"2',3'-dideoxyinosine;  didanosine","InChI=1S/C10H12N4O3/c15-3-6-1-2-7(17-6)14-5-13-8-9(14)11-4-12-10(8)16/h4-7,15H,1-3H2,(H,11,12,16)",BXZVVICBKDXVGW-UHFFFAOYSA-N,OCC1CCC(O1)[N]2C=NC3=C2N=CNC3=O,-0.94
5239,C-590,diphenylacetic  acid,"InChI=1S/C14H12O2/c15-14(16)13(11-7-3-1-4-8-11)12-9-5-2-6-10-12/h1-10,13H,(H,15,16)",PYHXGXCGESYPCW-UHFFFAOYSA-N,OC(=O)C(C1=CC=CC=C1)C2=CC=CC=C2,-3.22
5240,C-591,isocarboxazid;  1-benzyl-2-(5-methyl-3-isoxazolylcarbonyl)hydrazine,"InChI=1S/C12H13N3O2/c1-9-7-11(15-17-9)12(16)14-13-8-10-5-3-2-4-6-10/h2-7,13H,8H2,1H3,(H,14,16)",XKFPYPQQHFEXRZ-UHFFFAOYSA-N,CC1=CC(=NO1)C(=O)NNCC2=CC=CC=C2,-2.46
5241,C-592,pymetrozine,"InChI=1S/C10H11N5O/c1-8-7-15(10(16)14-13-8)12-6-9-3-2-4-11-5-9/h2-6H,7H2,1H3,(H,14,16)/b12-6+",QHMTXANCGGJZRX-WUXMJOGZSA-N,CC1=NNC(=O)N(C1)/N=C/C2=CC=CN=C2,-2.87
5242,C-593,procymidone;  dicyclidine,"InChI=1S/C13H11Cl2NO2/c1-12-6-13(12,2)11(18)16(10(12)17)9-4-7(14)3-8(15)5-9/h3-5H,6H2,1-2H3",QXJKBPAVAHBARF-UHFFFAOYSA-N,CC12CC1(C)C(=O)N(C2=O)C3=CC(=CC(=C3)Cl)Cl,-4.8
5243,C-594,chloramphenicol,"InChI=1S/C11H12Cl2N2O5/c12-10(13)11(18)14-8(5-16)9(17)6-1-3-7(4-2-6)15(19)20/h1-4,8-10,16-17H,5H2,(H,14,18)",WIIZWVCIJKGZOK-UHFFFAOYSA-N,OCC(NC(=O)C(Cl)Cl)C(O)C1=CC=C(C=C1)[N+]([O-])=O,-2.92
5244,C-595,cocaine,"InChI=1S/C17H21NO4/c1-18-12-8-9-13(18)15(17(20)21-2)14(10-12)22-16(19)11-6-4-3-5-7-11/h3-7,12-15H,8-10H2,1-2H3",ZPUCINDJVBIVPJ-UHFFFAOYSA-N,COC(=O)C1C(CC2CCC1N2C)OC(=O)C3=CC=CC=C3,-2.25
5245,C-596,phenazine;  dibenzopyrazine,InChI=1S/C12H8N2/c1-2-6-10-9(5-1)13-11-7-3-4-8-12(11)14-10/h1-8H,PCNDJXKNXGMECE-UHFFFAOYSA-N,C1=CC2=C(C=C1)N=C3C=CC=CC3=N2,-3.7
5246,C-597,isopropyl 1-(4-tolylsulfonyl)cyclopropane-1-carboxylate; 1-(4-methylphenylsulfonyl)cyclopropanecarboxylic acid isopropyl ester,"InChI=1S/C14H18O4S/c1-10(2)18-13(15)14(8-9-14)19(16,17)12-6-4-11(3)5-7-12/h4-7,10H,8-9H2,1-3H3",RHDLXXXPRNASTE-UHFFFAOYSA-N,CC(C)OC(=O)C1(CC1)[S](=O)(=O)C2=CC=C(C)C=C2,-3.23
5247,C-598,"2-cyclohexyl-4,6-dinitrophenol;  dinex","InChI=1S/C12H14N2O5/c15-12-10(8-4-2-1-3-5-8)6-9(13(16)17)7-11(12)14(18)19/h6-8,15H,1-5H2",QJYHUJAGJUHXJN-UHFFFAOYSA-N,OC1=C(C=C(C=C1[N+]([O-])=O)[N+]([O-])=O)C2CCCCC2,-4.25
5248,C-599,"2,6-dichlorodiphenyl  ether",InChI=1S/C12H8Cl2O/c13-10-7-4-8-11(14)12(10)15-9-5-2-1-3-6-9/h1-8H,IRLZOQDGEAEIPX-UHFFFAOYSA-N,ClC1=C(OC2=CC=CC=C2)C(=CC=C1)Cl,-5.06